  192  192    1    2
  0.2007906E+02  0.1640400E-08  0.1533138E-08  0.1533138E-08  0.5000000E-15
  1.000000000000000E-004
  CAR 
 unknown system                          
   1731      1   1136
 
  0.0000000E+00  0.0000000E+00  0.0000000E+00  0.1000000E+01
    1      -25.094120    -25.094120   1.000000   1.000000
    2      -25.093691    -25.093691   1.000000   1.000000
    3      -25.085596    -25.085596   1.000000   1.000000
    4      -25.085468    -25.085469   1.000000   1.000000
    5      -25.081110    -25.081110   1.000000   1.000000
    6      -25.080691    -25.080691   1.000000   1.000000
    7      -25.056294    -25.056294   1.000000   1.000000
    8      -25.055571    -25.055572   1.000000   1.000000
    9      -25.047906    -25.047907   1.000000   1.000000
   10      -25.047506    -25.047506   1.000000   1.000000
   11      -25.034283    -25.034283   1.000000   1.000000
   12      -25.033731    -25.033732   1.000000   1.000000
   13      -25.030378    -25.030378   1.000000   1.000000
   14      -25.029803    -25.029803   1.000000   1.000000
   15      -25.023983    -25.023984   1.000000   1.000000
   16      -25.023269    -25.023269   1.000000   1.000000
   17      -25.014035    -25.014035   1.000000   1.000000
   18      -25.009641    -25.009641   1.000000   1.000000
   19      -25.008452    -25.008453   1.000000   1.000000
   20      -25.006669    -25.006670   1.000000   1.000000
   21      -25.004041    -25.004041   1.000000   1.000000
   22      -25.003008    -25.003009   1.000000   1.000000
   23      -25.001403    -25.001403   1.000000   1.000000
   24      -25.001016    -25.001016   1.000000   1.000000
   25      -24.999607    -24.999608   1.000000   1.000000
   26      -24.999556    -24.999556   1.000000   1.000000
   27      -24.995067    -24.995067   1.000000   1.000000
   28      -24.993959    -24.993959   1.000000   1.000000
   29      -24.993762    -24.993762   1.000000   1.000000
   30      -24.993532    -24.993532   1.000000   1.000000
   31      -24.992937    -24.992937   1.000000   1.000000
   32      -24.992391    -24.992392   1.000000   1.000000
   33      -24.992114    -24.992114   1.000000   1.000000
   34      -24.991893    -24.991893   1.000000   1.000000
   35      -24.991754    -24.991754   1.000000   1.000000
   36      -24.991229    -24.991229   1.000000   1.000000
   37      -24.990801    -24.990801   1.000000   1.000000
   38      -24.990582    -24.990582   1.000000   1.000000
   39      -24.990198    -24.990198   1.000000   1.000000
   40      -24.990190    -24.990191   1.000000   1.000000
   41      -24.989984    -24.989985   1.000000   1.000000
   42      -24.989870    -24.989870   1.000000   1.000000
   43      -24.989452    -24.989452   1.000000   1.000000
   44      -24.989421    -24.989421   1.000000   1.000000
   45      -24.989110    -24.989110   1.000000   1.000000
   46      -24.989048    -24.989048   1.000000   1.000000
   47      -24.988987    -24.988987   1.000000   1.000000
   48      -24.988902    -24.988903   1.000000   1.000000
   49      -24.988769    -24.988769   1.000000   1.000000
   50      -24.988214    -24.988215   1.000000   1.000000
   51      -24.988020    -24.988020   1.000000   1.000000
   52      -24.987934    -24.987935   1.000000   1.000000
   53      -24.987633    -24.987633   1.000000   1.000000
   54      -24.987498    -24.987498   1.000000   1.000000
   55      -24.987374    -24.987374   1.000000   1.000000
   56      -24.987147    -24.987147   1.000000   1.000000
   57      -24.987006    -24.987006   1.000000   1.000000
   58      -24.986797    -24.986797   1.000000   1.000000
   59      -24.986575    -24.986575   1.000000   1.000000
   60      -24.986297    -24.986297   1.000000   1.000000
   61      -24.986238    -24.986238   1.000000   1.000000
   62      -24.985862    -24.985863   1.000000   1.000000
   63      -24.985669    -24.985669   1.000000   1.000000
   64      -24.985392    -24.985392   1.000000   1.000000
   65      -24.984858    -24.984859   1.000000   1.000000
   66      -24.984600    -24.984601   1.000000   1.000000
   67      -24.984556    -24.984556   1.000000   1.000000
   68      -24.984351    -24.984351   1.000000   1.000000
   69      -24.983831    -24.983831   1.000000   1.000000
   70      -24.983654    -24.983655   1.000000   1.000000
   71      -24.983305    -24.983305   1.000000   1.000000
   72      -24.983035    -24.983035   1.000000   1.000000
   73      -24.982953    -24.982953   1.000000   1.000000
   74      -24.982880    -24.982881   1.000000   1.000000
   75      -24.982783    -24.982783   1.000000   1.000000
   76      -24.982556    -24.982556   1.000000   1.000000
   77      -24.981870    -24.981870   1.000000   1.000000
   78      -24.981857    -24.981857   1.000000   1.000000
   79      -24.981236    -24.981236   1.000000   1.000000
   80      -24.980630    -24.980630   1.000000   1.000000
   81      -24.979947    -24.979947   1.000000   1.000000
   82      -24.979676    -24.979676   1.000000   1.000000
   83      -24.979406    -24.979406   1.000000   1.000000
   84      -24.979354    -24.979354   1.000000   1.000000
   85      -24.979313    -24.979313   1.000000   1.000000
   86      -24.979076    -24.979077   1.000000   1.000000
   87      -24.978749    -24.978750   1.000000   1.000000
   88      -24.978497    -24.978498   1.000000   1.000000
   89      -24.977822    -24.977822   1.000000   1.000000
   90      -24.977691    -24.977691   1.000000   1.000000
   91      -24.977631    -24.977631   1.000000   1.000000
   92      -24.977214    -24.977214   1.000000   1.000000
   93      -24.976891    -24.976891   1.000000   1.000000
   94      -24.976498    -24.976499   1.000000   1.000000
   95      -24.976364    -24.976364   1.000000   1.000000
   96      -24.976140    -24.976140   1.000000   1.000000
   97      -24.975971    -24.975971   1.000000   1.000000
   98      -24.975800    -24.975800   1.000000   1.000000
   99      -24.975721    -24.975721   1.000000   1.000000
  100      -24.975478    -24.975478   1.000000   1.000000
  101      -24.975099    -24.975099   1.000000   1.000000
  102      -24.974853    -24.974854   1.000000   1.000000
  103      -24.974755    -24.974756   1.000000   1.000000
  104      -24.973084    -24.973084   1.000000   1.000000
  105      -24.972934    -24.972934   1.000000   1.000000
  106      -24.971886    -24.971886   1.000000   1.000000
  107      -24.971410    -24.971411   1.000000   1.000000
  108      -24.970998    -24.970999   1.000000   1.000000
  109      -24.970650    -24.970650   1.000000   1.000000
  110      -24.970530    -24.970530   1.000000   1.000000
  111      -24.969951    -24.969951   1.000000   1.000000
  112      -24.969772    -24.969772   1.000000   1.000000
  113      -24.969516    -24.969516   1.000000   1.000000
  114      -24.969447    -24.969448   1.000000   1.000000
  115      -24.969041    -24.969042   1.000000   1.000000
  116      -24.968777    -24.968778   1.000000   1.000000
  117      -24.968303    -24.968304   1.000000   1.000000
  118      -24.967512    -24.967513   1.000000   1.000000
  119      -24.967240    -24.967240   1.000000   1.000000
  120      -24.967011    -24.967011   1.000000   1.000000
  121      -24.965662    -24.965663   1.000000   1.000000
  122      -24.965291    -24.965292   1.000000   1.000000
  123      -24.963394    -24.963394   1.000000   1.000000
  124      -24.963151    -24.963151   1.000000   1.000000
  125      -24.962997    -24.962997   1.000000   1.000000
  126      -24.962158    -24.962159   1.000000   1.000000
  127      -24.961578    -24.961579   1.000000   1.000000
  128      -24.961180    -24.961180   1.000000   1.000000
  129      -24.960469    -24.960469   1.000000   1.000000
  130      -24.960019    -24.960020   1.000000   1.000000
  131      -24.959675    -24.959676   1.000000   1.000000
  132      -24.959490    -24.959491   1.000000   1.000000
  133      -24.959424    -24.959424   1.000000   1.000000
  134      -24.959274    -24.959274   1.000000   1.000000
  135      -24.958660    -24.958661   1.000000   1.000000
  136      -24.958474    -24.958474   1.000000   1.000000
  137      -24.958271    -24.958271   1.000000   1.000000
  138      -24.958152    -24.958152   1.000000   1.000000
  139      -24.958092    -24.958092   1.000000   1.000000
  140      -24.957901    -24.957901   1.000000   1.000000
  141      -24.957555    -24.957555   1.000000   1.000000
  142      -24.957253    -24.957253   1.000000   1.000000
  143      -24.957129    -24.957130   1.000000   1.000000
  144      -24.957007    -24.957008   1.000000   1.000000
  145      -24.956869    -24.956869   1.000000   1.000000
  146      -24.956096    -24.956096   1.000000   1.000000
  147      -24.956006    -24.956006   1.000000   1.000000
  148      -24.955458    -24.955458   1.000000   1.000000
  149      -24.955435    -24.955436   1.000000   1.000000
  150      -24.955259    -24.955259   1.000000   1.000000
  151      -24.955056    -24.955056   1.000000   1.000000
  152      -24.954840    -24.954841   1.000000   1.000000
  153      -24.954114    -24.954114   1.000000   1.000000
  154      -24.953991    -24.953992   1.000000   1.000000
  155      -24.953646    -24.953647   1.000000   1.000000
  156      -24.952856    -24.952856   1.000000   1.000000
  157      -24.951809    -24.951809   1.000000   1.000000
  158      -24.951677    -24.951677   1.000000   1.000000
  159      -24.951572    -24.951572   1.000000   1.000000
  160      -24.950828    -24.950829   1.000000   1.000000
  161      -24.950459    -24.950460   1.000000   1.000000
  162      -24.950436    -24.950437   1.000000   1.000000
  163      -24.949769    -24.949770   1.000000   1.000000
  164      -24.949617    -24.949617   1.000000   1.000000
  165      -24.949454    -24.949455   1.000000   1.000000
  166      -24.948910    -24.948910   1.000000   1.000000
  167      -24.948768    -24.948769   1.000000   1.000000
  168      -24.948532    -24.948532   1.000000   1.000000
  169      -24.948527    -24.948527   1.000000   1.000000
  170      -24.948431    -24.948431   1.000000   1.000000
  171      -24.948366    -24.948367   1.000000   1.000000
  172      -24.948070    -24.948070   1.000000   1.000000
  173      -24.947781    -24.947782   1.000000   1.000000
  174      -24.947164    -24.947164   1.000000   1.000000
  175      -24.947073    -24.947073   1.000000   1.000000
  176      -24.946995    -24.946996   1.000000   1.000000
  177      -24.946916    -24.946917   1.000000   1.000000
  178      -24.946895    -24.946896   1.000000   1.000000
  179      -24.946808    -24.946808   1.000000   1.000000
  180      -24.945583    -24.945584   1.000000   1.000000
  181      -24.945087    -24.945087   1.000000   1.000000
  182      -24.945083    -24.945083   1.000000   1.000000
  183      -24.945004    -24.945005   1.000000   1.000000
  184      -24.944872    -24.944872   1.000000   1.000000
  185      -24.944352    -24.944352   1.000000   1.000000
  186      -24.944085    -24.944085   1.000000   1.000000
  187      -24.943939    -24.943939   1.000000   1.000000
  188      -24.943858    -24.943858   1.000000   1.000000
  189      -24.942726    -24.942726   1.000000   1.000000
  190      -24.942559    -24.942559   1.000000   1.000000
  191      -24.942320    -24.942321   1.000000   1.000000
  192      -24.942249    -24.942249   1.000000   1.000000
  193      -24.942228    -24.942228   1.000000   1.000000
  194      -24.941445    -24.941446   1.000000   1.000000
  195      -24.941294    -24.941294   1.000000   1.000000
  196      -24.939342    -24.939343   1.000000   1.000000
  197      -24.939036    -24.939036   1.000000   1.000000
  198      -24.936910    -24.936911   1.000000   1.000000
  199      -24.936751    -24.936751   1.000000   1.000000
  200      -24.935961    -24.935961   1.000000   1.000000
  201      -24.935333    -24.935334   1.000000   1.000000
  202      -24.935118    -24.935118   1.000000   1.000000
  203      -24.935108    -24.935108   1.000000   1.000000
  204      -24.934839    -24.934839   1.000000   1.000000
  205      -24.933815    -24.933815   1.000000   1.000000
  206      -24.933721    -24.933722   1.000000   1.000000
  207      -24.933273    -24.933274   1.000000   1.000000
  208      -24.930864    -24.930865   1.000000   1.000000
  209      -24.930062    -24.930062   1.000000   1.000000
  210      -24.929611    -24.929611   1.000000   1.000000
  211      -24.928418    -24.928419   1.000000   1.000000
  212      -24.927102    -24.927102   1.000000   1.000000
  213      -24.926571    -24.926571   1.000000   1.000000
  214      -24.926397    -24.926398   1.000000   1.000000
  215      -24.924750    -24.924751   1.000000   1.000000
  216      -24.923999    -24.924000   1.000000   1.000000
  217      -24.923712    -24.923712   1.000000   1.000000
  218      -24.922999    -24.923000   1.000000   1.000000
  219      -24.922179    -24.922180   1.000000   1.000000
  220      -24.922085    -24.922085   1.000000   1.000000
  221      -24.916363    -24.916363   1.000000   1.000000
  222      -24.916317    -24.916317   1.000000   1.000000
  223      -24.915046    -24.915047   1.000000   1.000000
  224      -24.914938    -24.914938   1.000000   1.000000
  225      -24.905974    -24.905974   1.000000   1.000000
  226      -24.905966    -24.905966   1.000000   1.000000
  227      -24.905947    -24.905947   1.000000   1.000000
  228      -24.905523    -24.905524   1.000000   1.000000
  229      -24.885207    -24.885207   1.000000   1.000000
  230      -24.885183    -24.885184   1.000000   1.000000
  231      -24.884767    -24.884768   1.000000   1.000000
  232      -24.884189    -24.884189   1.000000   1.000000
  233      -24.881167    -24.881168   1.000000   1.000000
  234      -24.880429    -24.880429   1.000000   1.000000
  235      -24.878974    -24.878974   1.000000   1.000000
  236      -24.878433    -24.878433   1.000000   1.000000
  237      -24.850008    -24.850009   1.000000   1.000000
  238      -24.849697    -24.849698   1.000000   1.000000
  239      -24.846479    -24.846479   1.000000   1.000000
  240      -24.846159    -24.846160   1.000000   1.000000
  241      -24.139673    -24.139674   1.000000   1.000000
  242      -24.136911    -24.136911   1.000000   1.000000
  243      -24.129799    -24.129799   1.000000   1.000000
  244      -24.116467    -24.116468   1.000000   1.000000
  245      -24.109407    -24.109408   1.000000   1.000000
  246      -11.356486    -11.356488   1.000000   1.000000
  247      -10.966958    -10.966960   1.000000   1.000000
  248      -10.951140    -10.951143   1.000000   1.000000
  249      -10.889593    -10.889596   1.000000   1.000000
  250      -10.872707    -10.872710   1.000000   1.000000
  251      -10.863173    -10.863176   1.000000   1.000000
  252      -10.849482    -10.849484   1.000000   1.000000
  253      -10.565771    -10.565773   1.000000   1.000000
  254      -10.559477    -10.559481   1.000000   1.000000
  255      -10.546065    -10.546068   1.000000   1.000000
  256      -10.543251    -10.543253   1.000000   1.000000
  257      -10.533572    -10.533574   1.000000   1.000000
  258      -10.528835    -10.528837   1.000000   1.000000
  259      -10.526863    -10.526866   1.000000   1.000000
  260      -10.523361    -10.523363   1.000000   1.000000
  261      -10.521458    -10.521461   1.000000   1.000000
  262      -10.503360    -10.503363   1.000000   1.000000
  263      -10.295339    -10.295341   1.000000   1.000000
  264      -10.289558    -10.289561   1.000000   1.000000
  265      -10.264689    -10.264692   1.000000   1.000000
  266      -10.257755    -10.257757   1.000000   1.000000
  267      -10.226237    -10.226240   1.000000   1.000000
  268      -10.221068    -10.221071   1.000000   1.000000
  269      -10.213307    -10.213309   1.000000   1.000000
  270      -10.200516    -10.200519   1.000000   1.000000
  271       -9.911271     -9.911273   1.000000   1.000000
  272       -9.903221     -9.903223   1.000000   1.000000
  273       -9.608772     -9.608776   1.000000   1.000000
  274       -9.607094     -9.607097   1.000000   1.000000
  275       -9.595066     -9.595068   1.000000   1.000000
  276       -9.592730     -9.592732   1.000000   1.000000
  277       -9.459359     -9.459363   1.000000   1.000000
  278       -9.458629     -9.458632   1.000000   1.000000
  279       -9.411274     -9.411277   1.000000   1.000000
  280       -9.395464     -9.395466   1.000000   1.000000
  281       -9.387320     -9.387323   1.000000   1.000000
  282       -9.383416     -9.383419   1.000000   1.000000
  283       -9.381384     -9.381386   1.000000   1.000000
  284       -9.378011     -9.378013   1.000000   1.000000
  285       -9.375932     -9.375934   1.000000   1.000000
  286       -9.368554     -9.368556   1.000000   1.000000
  287       -9.199879     -9.199882   1.000000   1.000000
  288       -9.194303     -9.194306   1.000000   1.000000
  289       -9.192735     -9.192738   1.000000   1.000000
  290       -9.188466     -9.188468   1.000000   1.000000
  291       -9.038851     -9.038854   1.000000   1.000000
  292       -8.909794     -8.909796   1.000000   1.000000
  293       -8.897464     -8.897466   1.000000   1.000000
  294       -8.829418     -8.829419   1.000000   1.000000
  295       -8.824751     -8.824754   1.000000   1.000000
  296       -8.817793     -8.817796   1.000000   1.000000
  297       -8.762053     -8.762056   1.000000   1.000000
  298       -8.706954     -8.706956   1.000000   1.000000
  299       -8.700196     -8.700198   1.000000   1.000000
  300       -8.697431     -8.697433   1.000000   1.000000
  301       -8.644280     -8.644282   1.000000   1.000000
  302       -8.617388     -8.617391   1.000000   1.000000
  303       -8.610779     -8.610782   1.000000   1.000000
  304       -8.606612     -8.606616   1.000000   1.000000
  305       -8.605921     -8.605924   1.000000   1.000000
  306       -8.602231     -8.602234   1.000000   1.000000
  307       -8.598145     -8.598149   1.000000   1.000000
  308       -8.597012     -8.597015   1.000000   1.000000
  309       -8.542173     -8.542178   1.000000   1.000000
  310       -8.533968     -8.533972   1.000000   1.000000
  311       -8.497912     -8.497915   1.000000   1.000000
  312       -8.463319     -8.463321   1.000000   1.000000
  313       -8.453743     -8.453745   1.000000   1.000000
  314       -8.453313     -8.453316   1.000000   1.000000
  315       -8.450994     -8.450997   1.000000   1.000000
  316       -8.448319     -8.448321   1.000000   1.000000
  317       -8.442687     -8.442690   1.000000   1.000000
  318       -8.442043     -8.442046   1.000000   1.000000
  319       -8.396113     -8.396115   1.000000   1.000000
  320       -8.384376     -8.384378   1.000000   1.000000
  321       -8.378002     -8.378004   1.000000   1.000000
  322       -8.376073     -8.376075   1.000000   1.000000
  323       -8.375721     -8.375724   1.000000   1.000000
  324       -8.371416     -8.371418   1.000000   1.000000
  325       -8.370094     -8.370096   1.000000   1.000000
  326       -8.368296     -8.368298   1.000000   1.000000
  327       -8.198872     -8.198875   1.000000   1.000000
  328       -8.185879     -8.185882   1.000000   1.000000
  329       -8.182465     -8.182468   1.000000   1.000000
  330       -8.180164     -8.180166   1.000000   1.000000
  331       -8.145227     -8.145228   1.000000   1.000000
  332       -8.142665     -8.142668   1.000000   1.000000
  333       -8.115243     -8.115246   1.000000   1.000000
  334       -8.113916     -8.113918   1.000000   1.000000
  335       -8.108557     -8.108560   1.000000   1.000000
  336       -8.106072     -8.106073   1.000000   1.000000
  337       -8.102616     -8.102618   1.000000   1.000000
  338       -8.093777     -8.093779   1.000000   1.000000
  339       -8.093473     -8.093476   1.000000   1.000000
  340       -8.090170     -8.090172   1.000000   1.000000
  341       -8.086704     -8.086706   1.000000   1.000000
  342       -6.892293     -6.892296   1.000000   1.000000
  343       -6.269911     -6.269913   1.000000   1.000000
  344       -6.268883     -6.268885   1.000000   1.000000
  345       -6.118410     -6.118412   1.000000   1.000000
  346       -6.112310     -6.112312   1.000000   1.000000
  347       -6.105391     -6.105393   1.000000   1.000000
  348       -6.099751     -6.099753   1.000000   1.000000
  349       -5.980855     -5.980857   1.000000   1.000000
  350       -5.958250     -5.958252   1.000000   1.000000
  351       -5.943524     -5.943525   1.000000   1.000000
  352       -5.937776     -5.937777   1.000000   1.000000
  353       -5.935368     -5.935370   1.000000   1.000000
  354       -5.934286     -5.934287   1.000000   1.000000
  355       -5.930968     -5.930969   1.000000   1.000000
  356       -5.924251     -5.924253   1.000000   1.000000
  357       -5.920331     -5.920333   1.000000   1.000000
  358       -5.918209     -5.918211   1.000000   1.000000
  359       -5.884526     -5.884528   1.000000   1.000000
  360       -5.826243     -5.826244   1.000000   1.000000
  361       -5.818506     -5.818507   1.000000   1.000000
  362       -5.813100     -5.813101   1.000000   1.000000
  363       -5.804844     -5.804845   1.000000   1.000000
  364       -5.791864     -5.791865   1.000000   1.000000
  365       -5.785503     -5.785504   1.000000   1.000000
  366       -5.783393     -5.783395   1.000000   1.000000
  367       -5.780276     -5.780277   1.000000   1.000000
  368       -5.772011     -5.772012   1.000000   1.000000
  369       -5.767206     -5.767207   1.000000   1.000000
  370       -5.761409     -5.761410   1.000000   1.000000
  371       -5.751610     -5.751610   1.000000   1.000000
  372       -5.743495     -5.743496   1.000000   1.000000
  373       -5.734296     -5.734297   1.000000   1.000000
  374       -5.731184     -5.731184   1.000000   1.000000
  375       -5.724110     -5.724110   1.000000   1.000000
  376       -5.722825     -5.722826   1.000000   1.000000
  377       -5.718367     -5.718368   1.000000   1.000000
  378       -5.717820     -5.717820   1.000000   1.000000
  379       -5.716639     -5.716640   1.000000   1.000000
  380       -5.713555     -5.713555   1.000000   1.000000
  381       -5.704558     -5.704559   1.000000   1.000000
  382       -5.700360     -5.700361   1.000000   1.000000
  383       -5.692062     -5.692063   1.000000   1.000000
  384       -5.664671     -5.664671   1.000000   1.000000
  385       -5.663455     -5.663456   1.000000   1.000000
  386       -5.658356     -5.658357   1.000000   1.000000
  387       -5.657484     -5.657485   1.000000   1.000000
  388       -5.648869     -5.648869   1.000000   1.000000
  389       -5.613553     -5.613553   1.000000   1.000000
  390       -5.551557     -5.551558   1.000000   1.000000
  391       -5.545316     -5.545316   1.000000   1.000000
  392       -5.542621     -5.542621   1.000000   1.000000
  393       -5.542215     -5.542215   1.000000   1.000000
  394       -5.533266     -5.533266   1.000000   1.000000
  395       -5.531310     -5.531310   1.000000   1.000000
  396       -5.528069     -5.528069   1.000000   1.000000
  397       -5.524172     -5.524172   1.000000   1.000000
  398       -5.523157     -5.523158   1.000000   1.000000
  399       -5.521942     -5.521942   1.000000   1.000000
  400       -5.521229     -5.521229   1.000000   1.000000
  401       -5.519719     -5.519719   1.000000   1.000000
  402       -5.517014     -5.517014   1.000000   1.000000
  403       -5.516403     -5.516403   1.000000   1.000000
  404       -5.516134     -5.516134   1.000000   1.000000
  405       -5.513398     -5.513398   1.000000   1.000000
  406       -5.512876     -5.512876   1.000000   1.000000
  407       -5.511667     -5.511667   1.000000   1.000000
  408       -5.510901     -5.510901   1.000000   1.000000
  409       -5.510065     -5.510065   1.000000   1.000000
  410       -5.508109     -5.508109   1.000000   1.000000
  411       -5.507452     -5.507453   1.000000   1.000000
  412       -5.505472     -5.505472   1.000000   1.000000
  413       -5.504671     -5.504671   1.000000   1.000000
  414       -5.502769     -5.502769   1.000000   1.000000
  415       -5.501436     -5.501436   1.000000   1.000000
  416       -5.500450     -5.500451   1.000000   1.000000
  417       -5.498613     -5.498614   1.000000   1.000000
  418       -5.496094     -5.496095   1.000000   1.000000
  419       -5.495977     -5.495977   1.000000   1.000000
  420       -5.494125     -5.494125   1.000000   1.000000
  421       -5.493509     -5.493510   1.000000   1.000000
  422       -5.492116     -5.492116   1.000000   1.000000
  423       -5.490983     -5.490983   1.000000   1.000000
  424       -5.490477     -5.490478   1.000000   1.000000
  425       -5.489765     -5.489765   1.000000   1.000000
  426       -5.489066     -5.489066   1.000000   1.000000
  427       -5.486563     -5.486563   1.000000   1.000000
  428       -5.484867     -5.484867   1.000000   1.000000
  429       -5.483171     -5.483171   1.000000   1.000000
  430       -5.482614     -5.482614   1.000000   1.000000
  431       -5.481759     -5.481759   1.000000   1.000000
  432       -5.478848     -5.478848   1.000000   1.000000
  433       -5.475158     -5.475159   1.000000   1.000000
  434       -5.471263     -5.471263   1.000000   1.000000
  435       -5.468804     -5.468804   1.000000   1.000000
  436       -5.468205     -5.468205   1.000000   1.000000
  437       -5.465017     -5.465017   1.000000   1.000000
  438       -5.459572     -5.459572   1.000000   1.000000
  439       -5.459243     -5.459244   1.000000   1.000000
  440       -5.451404     -5.451405   1.000000   1.000000
  441       -5.449710     -5.449711   1.000000   1.000000
  442       -5.444709     -5.444709   1.000000   1.000000
  443       -5.442793     -5.442793   1.000000   1.000000
  444       -5.439153     -5.439153   1.000000   1.000000
  445       -5.437973     -5.437974   1.000000   1.000000
  446       -5.436014     -5.436014   1.000000   1.000000
  447       -5.432900     -5.432901   1.000000   1.000000
  448       -5.432328     -5.432329   1.000000   1.000000
  449       -5.430073     -5.430073   1.000000   1.000000
  450       -5.428930     -5.428931   1.000000   1.000000
  451       -5.426843     -5.426843   1.000000   1.000000
  452       -5.424794     -5.424795   1.000000   1.000000
  453       -5.422556     -5.422557   1.000000   1.000000
  454       -5.422443     -5.422444   1.000000   1.000000
  455       -5.421338     -5.421339   1.000000   1.000000
  456       -5.419782     -5.419783   1.000000   1.000000
  457       -5.418855     -5.418856   1.000000   1.000000
  458       -5.414580     -5.414581   1.000000   1.000000
  459       -5.411622     -5.411622   1.000000   1.000000
  460       -5.410599     -5.410600   1.000000   1.000000
  461       -5.409115     -5.409115   1.000000   1.000000
  462       -5.404735     -5.404735   1.000000   1.000000
  463       -5.401192     -5.401193   1.000000   1.000000
  464       -5.400582     -5.400582   1.000000   1.000000
  465       -5.395772     -5.395773   1.000000   1.000000
  466       -5.392947     -5.392948   1.000000   1.000000
  467       -5.391332     -5.391333   1.000000   1.000000
  468       -5.390780     -5.390781   1.000000   1.000000
  469       -5.386119     -5.386120   1.000000   1.000000
  470       -5.385594     -5.385594   1.000000   1.000000
  471       -5.383221     -5.383222   1.000000   1.000000
  472       -5.381757     -5.381757   1.000000   1.000000
  473       -5.379251     -5.379252   1.000000   1.000000
  474       -5.377490     -5.377491   1.000000   1.000000
  475       -5.376093     -5.376094   1.000000   1.000000
  476       -5.374327     -5.374327   1.000000   1.000000
  477       -5.373383     -5.373383   1.000000   1.000000
  478       -5.372123     -5.372124   1.000000   1.000000
  479       -5.370849     -5.370850   1.000000   1.000000
  480       -5.369289     -5.369289   1.000000   1.000000
  481       -5.367475     -5.367476   1.000000   1.000000
  482       -5.364121     -5.364122   1.000000   1.000000
  483       -5.362590     -5.362591   1.000000   1.000000
  484       -5.360104     -5.360105   1.000000   1.000000
  485       -5.359499     -5.359500   1.000000   1.000000
  486       -5.358633     -5.358634   1.000000   1.000000
  487       -5.356258     -5.356259   1.000000   1.000000
  488       -5.355944     -5.355945   1.000000   1.000000
  489       -5.354064     -5.354065   1.000000   1.000000
  490       -5.353198     -5.353198   1.000000   1.000000
  491       -5.351721     -5.351722   1.000000   1.000000
  492       -5.351379     -5.351380   1.000000   1.000000
  493       -5.350424     -5.350425   1.000000   1.000000
  494       -5.349911     -5.349911   1.000000   1.000000
  495       -5.348220     -5.348221   1.000000   1.000000
  496       -5.347765     -5.347766   1.000000   1.000000
  497       -5.346774     -5.346774   1.000000   1.000000
  498       -5.344346     -5.344347   1.000000   1.000000
  499       -5.343312     -5.343313   1.000000   1.000000
  500       -5.342111     -5.342112   1.000000   1.000000
  501       -5.341359     -5.341360   1.000000   1.000000
  502       -5.341036     -5.341037   1.000000   1.000000
  503       -5.340123     -5.340124   1.000000   1.000000
  504       -5.337009     -5.337010   1.000000   1.000000
  505       -5.334761     -5.334762   1.000000   1.000000
  506       -5.332310     -5.332311   1.000000   1.000000
  507       -5.331709     -5.331709   1.000000   1.000000
  508       -5.329564     -5.329565   1.000000   1.000000
  509       -5.328890     -5.328891   1.000000   1.000000
  510       -5.327823     -5.327823   1.000000   1.000000
  511       -5.326749     -5.326750   1.000000   1.000000
  512       -5.325505     -5.325506   1.000000   1.000000