       N       E                     dE             d eps       ncg     rms          ort
SDA:   1    -0.112186474485E+04   -0.11219E+04   -0.14884E+02  1136   0.372E+02 0.000E+00
DMP:   2    -0.112658752882E+04   -0.47228E+01   -0.77477E+01  1136   0.244E+02-0.132E+02
DMP:   3    -0.113067240447E+04   -0.40849E+01   -0.13163E+01  1136   0.288E+01 0.108E+01
DMP:   4    -0.113129473979E+04   -0.62234E+00   -0.10848E+01  1136   0.277E+01-0.157E+00
DMP:   5    -0.113180393089E+04   -0.50919E+00   -0.29078E+00  1136   0.784E+00-0.150E+00
DMP:   6    -0.113200704782E+04   -0.20312E+00   -0.17510E+00  1136   0.326E+00 0.292E+00
DMP:   7    -0.113208851412E+04   -0.81466E-01   -0.90672E-01  1136   0.238E+00-0.293E-01
DMP:   8    -0.113214172967E+04   -0.53216E-01   -0.19001E-01  1136   0.325E-01 0.392E-01
DMP:   9    -0.113215482733E+04   -0.13098E-01   -0.15508E-01  1136   0.318E-01 0.182E-01
DMP:  10    -0.113216125858E+04   -0.64312E-02   -0.75795E-02  1136   0.213E-01-0.607E-02
DMP:  11    -0.113216562555E+04   -0.43670E-02   -0.14834E-02  1136   0.264E-02 0.281E-02
DMP:  12    -0.113216674458E+04   -0.11190E-02   -0.10741E-02  1136   0.193E-02 0.197E-02
DMP:  13    -0.113216715462E+04   -0.41004E-03   -0.73570E-03  1136   0.203E-02-0.492E-03
DMP:  14    -0.113216750265E+04   -0.34802E-03   -0.19509E-03  1136   0.543E-03-0.145E-03
DMP:  15    -0.113216762030E+04   -0.11765E-03   -0.48987E-04  1136   0.675E-04 0.144E-03
DMP:  16    -0.113216765658E+04   -0.36282E-04   -0.31389E-04  1136   0.516E-04 0.704E-04
DMP:  17    -0.113216767728E+04   -0.20702E-04   -0.13631E-04  1136   0.268E-04 0.191E-04
DMP:  18    -0.113216768517E+04   -0.78931E-05   -0.47606E-05  1136   0.614E-05 0.151E-04
   1 F= -.11321677E+04 E0= -.11321531E+04  d E =-.291410E-01  mag=    -0.0004
