 vasp.5.4.4.18Apr17-6-g9f103f2a35 (build Mar 26 2021 15:05:33) gamma-only       
  
 executed on             LinuxIFC date 2022.01.31  14:06:41
 running on  128 total cores
 distrk:  each k-point on  128 cores,    1 groups
 distr:  one band on NCORES_PER_BAND=   8 cores,   16 groups


--------------------------------------------------------------------------------------------------------


 INCAR:
 POTCAR:   PAW_PBE Zn 06Sep2000                   
 POTCAR:   PAW_PBE Ge_d 06Sep2000                 
 POTCAR:    PAW_PBE P 17Jan2003                   
 POTCAR:   PAW_PBE Zn 06Sep2000                   
   VRHFIN =Zn: d10 p2                                                           
   LEXCH  = PE                                                                  
   EATOM  =  1749.0928 eV,  128.5547 Ry                                         
                                                                                
   TITEL  = PAW_PBE Zn 06Sep2000                                                
   LULTRA =        F    use ultrasoft PP ?                                      
   IUNSCR =        1    unscreen: 0-lin 1-nonlin 2-no                           
   RPACOR =    2.000    partial core radius                                     
   POMASS =   65.390; ZVAL   =   12.000    mass and valenz                      
   RCORE  =    2.300    outmost cutoff radius                                   
   RWIGS  =    2.400; RWIGS  =    1.270    wigner-seitz radius (au A)           
   ENMAX  =  276.727; ENMIN  =  207.545 eV                                      
   RCLOC  =    1.828    cutoff for local pot                                    
   LCOR   =        T    correct aug charges                                     
   LPAW   =        T    paw PP                                                  
   EAUG   =  575.892                                                            
   DEXC   =    -.003                                                            
   RMAX   =    2.772    core radius for proj-oper                               
   RAUG   =    1.300    factor for augmentation sphere                          
   RDEP   =    2.324    radius for radial grids                                 
   QCUT   =   -4.510; QGAM   =    9.020    optimization parameters              
                                                                                
   Description                                                                  
     l     E      TYP  RCUT    TYP  RCUT                                        
     2   .000     23  2.300                                                     
     2   .000     23  2.300                                                     
     0   .000     23  2.300                                                     
     0   .000     23  2.300                                                     
     1  -.200     23  2.300                                                     
     1   .000     23  2.300                                                     
     3   .000      7   .000                                                     
  local pseudopotential read in
  partial core-charges read in
  atomic valenz-charges read in
  non local Contribution for L=           2  read in
    real space projection operators read in
  non local Contribution for L=           2  read in
    real space projection operators read in
  non local Contribution for L=           0  read in
    real space projection operators read in
  non local Contribution for L=           0  read in
    real space projection operators read in
  non local Contribution for L=           1  read in
    real space projection operators read in
  non local Contribution for L=           1  read in
    real space projection operators read in
    PAW grid and wavefunctions read in
 
   number of l-projection  operators is LMAX  =           6
   number of lm-projection operators is LMMAX =          18
 
 POTCAR:   PAW_PBE Ge_d 06Sep2000                 
   VRHFIN =Ge: 3d4s4p                                                           
   LEXCH  = PE                                                                  
   EATOM  =  2596.4246 eV,  190.8318 Ry                                         
                                                                                
   TITEL  = PAW_PBE Ge_d 06Sep2000                                              
   LULTRA =        F    use ultrasoft PP ?                                      
   IUNSCR =        1    unscreen: 0-lin 1-nonlin 2-no                           
   RPACOR =    2.000    partial core radius                                     
   POMASS =   72.610; ZVAL   =   14.000    mass and valenz                      
   RCORE  =    2.300    outmost cutoff radius                                   
   RWIGS  =    2.300; RWIGS  =    1.217    wigner-seitz radius (au A)           
   ENMAX  =  287.568; ENMIN  =  215.676 eV                                      
   ICORE  =        3    local potential                                         
   LCOR   =        T    correct aug charges                                     
   LPAW   =        T    paw PP                                                  
   EAUG   =  531.356                                                            
   DEXC   =     .000                                                            
   RMAX   =    2.719    core radius for proj-oper                               
   RAUG   =    1.300    factor for augmentation sphere                          
   RDEP   =    2.318    radius for radial grids                                 
   QCUT   =   -4.597; QGAM   =    9.195    optimization parameters              
                                                                                
   Description                                                                  
     l     E      TYP  RCUT    TYP  RCUT                                        
     2   .000     23  2.300                                                     
     2  -.100     23  2.300                                                     
     0   .000     23  2.300                                                     
     0   .000     23  2.300                                                     
     1   .000     23  2.300                                                     
     1   .000     23  2.300                                                     
     3  -.100      7  2.300                                                     
  local pseudopotential read in
  partial core-charges read in
  atomic valenz-charges read in
  non local Contribution for L=           2  read in
    real space projection operators read in
  non local Contribution for L=           2  read in
    real space projection operators read in
  non local Contribution for L=           0  read in
    real space projection operators read in
  non local Contribution for L=           0  read in
    real space projection operators read in
  non local Contribution for L=           1  read in
    real space projection operators read in
  non local Contribution for L=           1  read in
    real space projection operators read in
    PAW grid and wavefunctions read in
 
   number of l-projection  operators is LMAX  =           6
   number of lm-projection operators is LMMAX =          18
 
 POTCAR:    PAW_PBE P 17Jan2003                   
   VRHFIN =P : s2p3                                                             
   LEXCH  = PE                                                                  
   EATOM  =   176.0430 eV,   12.9388 Ry                                         
                                                                                
   TITEL  = PAW_PBE P 17Jan2003                                                 
   LULTRA =        F    use ultrasoft PP ?                                      
   IUNSCR =        1    unscreen: 0-lin 1-nonlin 2-no                           
   RPACOR =    1.500    partial core radius                                     
   POMASS =   30.974; ZVAL   =    5.000    mass and valenz                      
   RCORE  =    1.900    outmost cutoff radius                                   
   RWIGS  =    2.330; RWIGS  =    1.233    wigner-seitz radius (au A)           
   ENMAX  =  270.000; ENMIN  =  191.280 eV                                      
   ICORE  =        2    local potential                                         
   LCOR   =        T    correct aug charges                                     
   LPAW   =        T    paw PP                                                  
   EAUG   =  342.924                                                            
   DEXC   =    -.002                                                            
   RMAX   =    2.887    core radius for proj-oper                               
   RAUG   =    1.300    factor for augmentation sphere                          
   RDEP   =    1.931    radius for radial grids                                 
   QCUT   =   -4.330; QGAM   =    8.659    optimization parameters              
                                                                                
   Description                                                                  
     l     E      TYP  RCUT    TYP  RCUT                                        
     0   .000     23  1.900                                                     
     0   .000     23  1.900                                                     
     1   .000     23  1.900                                                     
     1   .000     23  1.900                                                     
     2   .000     23  1.900                                                     
  local pseudopotential read in
  partial core-charges read in
  atomic valenz-charges read in
  non local Contribution for L=           0  read in
    real space projection operators read in
  non local Contribution for L=           0  read in
    real space projection operators read in
  non local Contribution for L=           1  read in
    real space projection operators read in
  non local Contribution for L=           1  read in
    real space projection operators read in
    PAW grid and wavefunctions read in
 
   number of l-projection  operators is LMAX  =           4
   number of lm-projection operators is LMMAX =           8
 

 ----------------------------------------------------------------------------- 
|                                                                             |
|  ADVICE TO THIS USER RUNNING 'VASP/VAMP'   (HEAR YOUR MASTER'S VOICE ...):  |
|                                                                             |
|      You have a (more or less) 'large supercell' and for larger cells       |
|      it might be more efficient to use real space projection operators      |
|      So try LREAL= Auto  in the INCAR   file.                               |
|      Mind: If you want to do a very accurate calculations keep the          |
|      reciprocal projection scheme          (i.e. LREAL=.FALSE.)             |
|                                                                             |
 ----------------------------------------------------------------------------- 

 PAW_PBE Zn 06Sep2000                   :
 energy of atom  1       EATOM=-1749.0928
 kinetic energy error for atom=    0.0174 (will be added to EATOM!!)
 PAW_PBE Ge_d 06Sep2000                 :
 energy of atom  2       EATOM=-2596.4246
 kinetic energy error for atom=    0.0135 (will be added to EATOM!!)
  PAW_PBE P 17Jan2003                   :
 energy of atom  3       EATOM= -176.0430
 kinetic energy error for atom=    0.0024 (will be added to EATOM!!)
 
 
 POSCAR: Zn47Ge49P96                             
  positions in direct lattice
  velocities in cartesian coordinates
 exchange correlation table for  LEXCH =        8
   RHO(1)=    0.500       N(1)  =     2000
   RHO(2)=  100.500       N(2)  =     4000
 


--------------------------------------------------------------------------------------------------------


 ion  position               nearest neighbor table
   1  0.998  0.999  0.997- 120 2.34 186 2.35  99 2.36 173 2.36
   2  0.167  0.624  0.375- 128 2.36 101 2.37 127 2.37 102 2.37
   3  0.166  0.875  0.372- 102 2.36 100 2.37 103 2.37  97 2.38
   4  1.000  0.500  0.750- 172 2.37 105 2.37 107 2.37 170 2.37
   5  0.000  0.500  0.500- 128 2.36 107 2.37 165 2.37 178 2.37
   6  0.167  0.125  0.875- 120 2.36 109 2.36 119 2.37 110 2.37
   7  0.167  0.375  0.875- 105 2.37 108 2.37 111 2.37 110 2.37
   8  1.000  0.250  0.501- 180 2.36 178 2.36 113 2.37 115 2.37
   9  0.002  0.253  0.251- 189 2.34 115 2.35 162 2.36 112 2.36
  10  0.166  0.875  0.624- 118 2.36 103 2.37 117 2.37 104 2.37
  11  0.166  0.125  0.625- 118 2.36 113 2.37 119 2.37 116 2.37
  12  0.000  0.749  0.000- 121 2.36 123 2.36 188 2.37 186 2.37
  13  1.000  0.750  0.750- 181 2.36 170 2.37 104 2.37 123 2.37
  14  0.167  0.373  0.125- 125 2.37 126 2.37 111 2.37 112 2.37
  15  0.166  0.623  0.125- 126 2.37 124 2.37 121 2.37 127 2.37
  16  0.334  0.999  0.250- 131 2.36 129 2.36 100 2.37  98 2.37
  17  0.334  0.999  0.999- 152 2.36 122 2.36 109 2.37 131 2.37
  18  0.500  0.624  0.375- 133 2.36 134 2.37 160 2.37 159 2.37
  19  0.500  0.875  0.375- 134 2.37 135 2.37 129 2.37 132 2.37
  20  0.333  0.500  0.751- 139 2.36 106 2.36 137 2.36 108 2.37
  21  0.333  0.500  0.500- 139 2.37 101 2.37 160 2.37 114 2.37
  22  0.500  0.125  0.875- 152 2.36 151 2.36 142 2.37 141 2.37
  23  0.500  0.376  0.874- 140 2.36 137 2.36 142 2.36 143 2.36
  24  0.333  0.250  0.500- 114 2.36 145 2.37 147 2.37 116 2.37
  25  0.333  0.250  0.250- 125 2.37 144 2.37 147 2.37  98 2.37
  26  0.500  0.875  0.626- 136 2.36 135 2.37 149 2.37 150 2.37
  27  0.499  0.126  0.625- 148 2.36 145 2.37 150 2.37 151 2.37
  28  0.336  0.746  0.998- 122 2.35 155 2.35 124 2.36 153 2.37
  29  0.333  0.750  0.749- 136 2.37 117 2.37 106 2.37 155 2.37
  30  0.500  0.375  0.125- 157 2.36 158 2.36 143 2.37 144 2.37
  31  0.501  0.625  0.124- 153 2.36 156 2.37 159 2.37 158 2.37
  32  0.666  1.000  0.251- 130 2.36 132 2.36 161 2.37 163 2.37
  33  0.667  0.000  0.000- 184 2.37 141 2.37 154 2.37 163 2.37
  34  0.834  0.626  0.375- 191 2.36 166 2.37 192 2.37 165 2.37
  35  0.834  0.878  0.375- 167 2.36 161 2.37 166 2.37 164 2.38
  36  0.667  0.499  0.750- 138 2.36 171 2.36 140 2.36 169 2.37
  37  0.667  0.501  0.499- 133 2.37 192 2.37 171 2.37 146 2.37
  38  0.833  0.125  0.877- 184 2.37 183 2.37 174 2.37 173 2.37
  39  0.833  0.375  0.875- 172 2.37 169 2.37 174 2.37 175 2.37
  40  0.664  0.252  0.504- 179 2.35 146 2.35 177 2.36 148 2.37
  41  0.666  0.251  0.251- 157 2.36 179 2.36 176 2.37 130 2.37
  42  0.833  0.875  0.626- 181 2.36 168 2.37 182 2.37 167 2.37
  43  0.834  0.125  0.627- 183 2.37 177 2.37 180 2.37 182 2.37
  44  0.667  0.750  0.000- 187 2.36 156 2.37 154 2.37 185 2.37
  45  0.667  0.750  0.750- 138 2.37 168 2.37 149 2.37 187 2.37
  46  0.833  0.375  0.125- 189 2.36 176 2.36 190 2.37 175 2.37
  47  0.834  0.625  0.125- 191 2.36 188 2.37 190 2.37 185 2.37
  48  0.172  0.871  0.120-  99 2.32 122 2.33 100 2.34 121 2.34
  49  0.169  0.123  0.124- 109 2.33  99 2.34  98 2.34 112 2.35
  50  1.000  0.750  0.500- 165 2.34 104 2.34 167 2.34 102 2.34
  51  0.002  0.749  0.250- 102 2.34 191 2.34 121 2.34 164 2.34
  52  0.166  0.375  0.625- 108 2.34 113 2.34 107 2.34 114 2.34
  53  0.166  0.625  0.625- 101 2.34 104 2.34 107 2.34 106 2.34
  54  1.000  0.250  0.000- 110 2.34 175 2.34 112 2.34 173 2.34
  55  1.000  0.250  0.751- 183 2.34 172 2.34 110 2.34 113 2.34
  56  0.167  0.126  0.374- 115 2.34 116 2.34  98 2.34  97 2.36
  57  0.167  0.375  0.376- 128 2.34 114 2.34 125 2.34 115 2.34
  58  0.001  0.000  0.751- 118 2.34 120 2.35 181 2.35 183 2.35
  59  0.998  0.000  0.501- 167 2.34 118 2.34 180 2.34  97 2.34
  60  0.166  0.625  0.875- 106 2.34 123 2.34 124 2.34 105 2.34
  61  0.168  0.874  0.875- 122 2.34 117 2.34 123 2.34 120 2.35
  62  0.999  0.499  0.250- 191 2.34 189 2.35 128 2.35 126 2.35
  63  0.000  0.499  0.000- 126 2.34 105 2.34 175 2.34 188 2.34
  64  0.500  0.875  0.125- 153 2.34 154 2.34 132 2.34 131 2.34
  65  0.500  0.125  0.125- 144 2.34 141 2.34 130 2.34 131 2.34
  66  0.333  0.751  0.499- 101 2.34 136 2.34 134 2.34 103 2.35
  67  0.334  0.749  0.250- 134 2.34 100 2.34 153 2.34 127 2.34
  68  0.499  0.376  0.625- 146 2.33 139 2.34 145 2.34 140 2.34
  69  0.500  0.625  0.625- 139 2.34 138 2.34 136 2.34 133 2.34
  70  0.334  0.250  0.999- 111 2.34 142 2.34 109 2.34 144 2.34
  71  0.333  0.250  0.750- 145 2.34 108 2.34 142 2.34 119 2.34
  72  0.500  0.125  0.375- 148 2.34 147 2.34 129 2.34 130 2.34
  73  0.500  0.375  0.375- 160 2.34 157 2.34 146 2.34 147 2.34
  74  0.333  0.000  0.749- 150 2.34 117 2.34 152 2.34 119 2.34
  75  0.333  1.000  0.500- 103 2.34 129 2.34 116 2.34 150 2.34
  76  0.501  0.625  0.874- 155 2.33 138 2.34 156 2.34 137 2.34
  77  0.500  0.875  0.875- 149 2.34 152 2.34 155 2.34 154 2.34
  78  0.333  0.500  0.250- 160 2.34 127 2.34 158 2.34 125 2.34
  79  0.333  0.499  0.000- 124 2.34 111 2.34 158 2.34 137 2.34
  80  0.833  0.876  0.124- 186 2.34 185 2.34 163 2.34 164 2.36
  81  0.831  0.126  0.127- 176 2.33 162 2.34 163 2.34 173 2.35
  82  0.667  0.751  0.499- 168 2.34 133 2.34 135 2.34 166 2.35
  83  0.667  0.750  0.250- 166 2.34 132 2.34 185 2.34 159 2.34
  84  0.834  0.375  0.625- 171 2.34 178 2.34 177 2.34 172 2.34
  85  0.834  0.625  0.625- 168 2.34 165 2.34 170 2.34 171 2.34
  86  0.666  0.251  1.000- 174 2.34 143 2.34 176 2.34 141 2.34
  87  0.667  0.250  0.751- 177 2.34 174 2.34 151 2.34 140 2.34
  88  0.828  0.130  0.379- 162 2.32 179 2.33 161 2.34 180 2.34
  89  0.832  0.375  0.376- 179 2.34 192 2.34 178 2.34 189 2.35
  90  0.667  0.000  0.750- 149 2.34 182 2.34 151 2.34 184 2.34
  91  0.666  1.000  0.501- 135 2.34 161 2.34 148 2.34 182 2.34
  92  0.834  0.625  0.875- 169 2.34 188 2.34 170 2.34 187 2.34
  93  0.833  0.874  0.875- 181 2.34 187 2.34 184 2.34 186 2.34
  94  0.667  0.501  0.250- 159 2.34 192 2.34 157 2.34 190 2.34
  95  0.667  0.500  0.000- 156 2.34 169 2.34 143 2.34 190 2.34
  96  0.000  0.007  0.243-  97 2.47 164 2.47 162 2.50  99 2.50
  97  0.082  0.001  0.378-  59 2.34  56 2.36   3 2.38  96 2.47
  98  0.249  0.124  0.250-  56 2.34  49 2.34  16 2.37  25 2.37
  99  0.092  0.995  0.114-  48 2.32  49 2.34   1 2.36  96 2.50
 100  0.251  0.873  0.247-  48 2.34  67 2.34   3 2.37  16 2.37
 101  0.250  0.626  0.501-  53 2.34  66 2.34   2 2.37  21 2.37
 102  0.083  0.750  0.375-  51 2.34  50 2.34   3 2.36   2 2.37
 103  0.250  0.875  0.498-  75 2.34  66 2.35  10 2.37   3 2.37
 104  0.083  0.749  0.624-  50 2.34  53 2.34  10 2.37  13 2.37
 105  0.083  0.501  0.876-  63 2.34  60 2.34   7 2.37   4 2.37
 106  0.249  0.625  0.750-  60 2.34  53 2.34  20 2.36  29 2.37
 107  0.084  0.500  0.625-  52 2.34  53 2.34   4 2.37   5 2.37
 108  0.250  0.374  0.749-  52 2.34  71 2.34   7 2.37  20 2.37
 109  0.251  0.126  0.000-  49 2.33  70 2.34   6 2.36  17 2.37
 110  0.082  0.250  0.876-  54 2.34  55 2.34   6 2.37   7 2.37
 111  0.251  0.374  0.000-  70 2.34  79 2.34   7 2.37  14 2.37
 112  0.084  0.246  0.124-  54 2.34  49 2.35   9 2.36  14 2.37
 113  0.083  0.251  0.627-  52 2.34  55 2.34   8 2.37  11 2.37
 114  0.249  0.375  0.500-  57 2.34  52 2.34  24 2.36  21 2.37
 115  0.085  0.250  0.376-  56 2.34  57 2.34   9 2.35   8 2.37
 116  0.249  0.123  0.498-  56 2.34  75 2.34  11 2.37  24 2.37
 117  0.250  0.876  0.750-  74 2.34  61 2.34  10 2.37  29 2.37
 118  0.082  1.000  0.625-  59 2.34  58 2.34  10 2.36  11 2.36
 119  0.251  0.125  0.750-  74 2.34  71 2.34   6 2.37  11 2.37
 120  0.085  0.999  0.875-   1 2.34  58 2.35  61 2.35   6 2.36
 121  0.084  0.750  0.126-  51 2.34  48 2.34  12 2.36  15 2.37
 122  0.254  0.871  0.996-  48 2.33  61 2.34  28 2.35  17 2.36
 123  0.084  0.750  0.875-  60 2.34  61 2.34  12 2.36  13 2.37
 124  0.250  0.623  0.999-  79 2.34  60 2.34  28 2.36  15 2.37
 125  0.250  0.376  0.252-  57 2.34  78 2.34  25 2.37  14 2.37
 126  0.082  0.498  0.125-  63 2.34  62 2.35  15 2.37  14 2.37
 127  0.251  0.625  0.250-  78 2.34  67 2.34   2 2.37  15 2.37
 128  0.083  0.498  0.373-  57 2.34  62 2.35   2 2.36   5 2.36
 129  0.417  0.001  0.376-  75 2.34  72 2.34  16 2.36  19 2.37
 130  0.582  0.125  0.250-  72 2.34  65 2.34  32 2.36  41 2.37
 131  0.418  1.000  0.125-  64 2.34  65 2.34  16 2.36  17 2.37
 132  0.583  0.874  0.249-  83 2.34  64 2.34  32 2.36  19 2.37
 133  0.584  0.627  0.501-  82 2.34  69 2.34  18 2.36  37 2.37
 134  0.416  0.750  0.375-  67 2.34  66 2.34  18 2.37  19 2.37
 135  0.584  0.875  0.500-  91 2.34  82 2.34  26 2.37  19 2.37
 136  0.416  0.749  0.623-  66 2.34  69 2.34  26 2.36  29 2.37
 137  0.417  0.501  0.876-  79 2.34  76 2.34  23 2.36  20 2.36
 138  0.583  0.624  0.749-  76 2.34  69 2.34  36 2.36  45 2.37
 139  0.417  0.501  0.626-  68 2.34  69 2.34  20 2.36  21 2.37
 140  0.583  0.374  0.749-  87 2.34  68 2.34  23 2.36  36 2.36
 141  0.583  0.126  0.001-  65 2.34  86 2.34  33 2.37  22 2.37
 142  0.416  0.250  0.874-  70 2.34  71 2.34  23 2.36  22 2.37
 143  0.584  0.376  1.000-  86 2.34  95 2.34  23 2.36  30 2.37
 144  0.417  0.249  0.124-  65 2.34  70 2.34  25 2.37  30 2.37
 145  0.416  0.251  0.626-  71 2.34  68 2.34  27 2.37  24 2.37
 146  0.581  0.376  0.501-  68 2.33  73 2.34  40 2.35  37 2.37
 147  0.417  0.250  0.375-  72 2.34  73 2.34  24 2.37  25 2.37
 148  0.583  0.124  0.499-  72 2.34  91 2.34  27 2.36  40 2.37
 149  0.584  0.876  0.751-  77 2.34  90 2.34  26 2.37  45 2.37
 150  0.415  0.000  0.625-  74 2.34  75 2.34  27 2.37  26 2.37
 151  0.584  0.125  0.750-  90 2.34  87 2.34  22 2.36  27 2.37
 152  0.417  0.999  0.873-  77 2.34  74 2.34  17 2.36  22 2.36
 153  0.417  0.751  0.126-  64 2.34  67 2.34  31 2.36  28 2.37
 154  0.583  0.875  0.000-  64 2.34  77 2.34  44 2.37  33 2.37
 155  0.419  0.749  0.874-  76 2.33  77 2.34  28 2.35  29 2.37
 156  0.584  0.624  0.998-  95 2.34  76 2.34  31 2.37  44 2.37
 157  0.583  0.377  0.251-  73 2.34  94 2.34  41 2.36  30 2.36
 158  0.416  0.500  0.125-  78 2.34  79 2.34  30 2.36  31 2.37
 159  0.585  0.625  0.250-  94 2.34  83 2.34  31 2.37  18 2.37
 160  0.416  0.499  0.374-  73 2.34  78 2.34  18 2.37  21 2.37
 161  0.749  0.003  0.377-  88 2.34  91 2.34  35 2.37  32 2.37
 162  0.908  0.136  0.255-  88 2.32  81 2.34   9 2.36  96 2.50
 163  0.751  0.000  0.126-  80 2.34  81 2.34  32 2.37  33 2.37
 164  0.918  0.872  0.249-  51 2.34  80 2.36  35 2.38  96 2.47
 165  0.917  0.626  0.501-  50 2.34  85 2.34  34 2.37   5 2.37
 166  0.750  0.752  0.375-  83 2.34  82 2.35  34 2.37  35 2.37
 167  0.917  0.875  0.500-  59 2.34  50 2.34  35 2.36  42 2.37
 168  0.750  0.749  0.624-  85 2.34  82 2.34  42 2.37  45 2.37
 169  0.750  0.501  0.876-  92 2.34  95 2.34  39 2.37  36 2.37
 170  0.916  0.625  0.750-  92 2.34  85 2.34   4 2.37  13 2.37
 171  0.751  0.500  0.625-  84 2.34  85 2.34  36 2.36  37 2.37
 172  0.917  0.374  0.749-  55 2.34  84 2.34  39 2.37   4 2.37
 173  0.916  0.126  0.004-  54 2.34  81 2.35   1 2.36  38 2.37
 174  0.749  0.250  0.876-  86 2.34  87 2.34  39 2.37  38 2.37
 175  0.918  0.374  0.000-  54 2.34  63 2.34  46 2.37  39 2.37
 176  0.749  0.250  0.124-  81 2.33  86 2.34  46 2.36  41 2.37
 177  0.750  0.251  0.627-  87 2.34  84 2.34  40 2.36  43 2.37
 178  0.916  0.375  0.500-  84 2.34  89 2.34   8 2.36   5 2.37
 179  0.746  0.254  0.379-  88 2.33  89 2.34  40 2.35  41 2.36
 180  0.916  0.124  0.500-  59 2.34  88 2.34   8 2.36  43 2.37
 181  0.917  0.877  0.752-  93 2.34  58 2.35  42 2.36  13 2.36
 182  0.749  0.000  0.625-  90 2.34  91 2.34  42 2.37  43 2.37
 183  0.918  0.125  0.752-  55 2.34  58 2.35  43 2.37  38 2.37
 184  0.750  0.998  0.874-  93 2.34  90 2.34  33 2.37  38 2.37
 185  0.751  0.752  0.127-  80 2.34  83 2.34  47 2.37  44 2.37
 186  0.915  0.874  0.000-  80 2.34  93 2.34   1 2.35  12 2.37
 187  0.751  0.750  0.875-  93 2.34  92 2.34  44 2.36  45 2.37
 188  0.917  0.623  0.999-  92 2.34  63 2.34  12 2.37  47 2.37
 189  0.915  0.375  0.251-   9 2.34  62 2.35  89 2.35  46 2.36
 190  0.749  0.500  0.125-  94 2.34  95 2.34  46 2.37  47 2.37
 191  0.918  0.625  0.250-  51 2.34  62 2.34  34 2.36  47 2.36
 192  0.750  0.500  0.374-  94 2.34  89 2.34  34 2.37  37 2.37
 
  LATTYP: Found a base centered orthorhombic cell.
 ALAT       =    21.4900005599
 B/A-ratio  =     1.0177756885
 C/A-ratio  =     0.7633317623
  
  Lattice vectors:
  
 A1 = (   0.0000000000,  15.3313770000,   0.0000000000)
 A2 = (   0.0000000000,  -0.2701040000, -15.3289980000)
 A3 = ( -16.4040000000,   0.0000000000,   0.0000000000)


Analysis of symmetry for initial positions (statically):
=====================================================================
 Subroutine PRICEL returns:
 Original cell was already a primitive cell.
 

 Routine SETGRP: Setting up the symmetry group for a 
 base centered orthorhombic supercell.


 Subroutine GETGRP returns: Found  1 space group operations
 (whereof  1 operations were pure point group operations)
 out of a pool of  8 trial point group operations.


The static configuration has the point symmetry C_1 .


Analysis of symmetry for dynamics (positions and initial velocities):
=====================================================================
 Subroutine PRICEL returns:
 Original cell was already a primitive cell.
 

 Routine SETGRP: Setting up the symmetry group for a 
 base centered orthorhombic supercell.


 Subroutine GETGRP returns: Found  1 space group operations
 (whereof  1 operations were pure point group operations)
 out of a pool of  8 trial point group operations.


The dynamic configuration has the point symmetry C_1 .


Analysis of structural, dynamic, and magnetic symmetry:
=====================================================================
 Subroutine PRICEL returns:
 Original cell was already a primitive cell.
 

 Routine SETGRP: Setting up the symmetry group for a 
 base centered orthorhombic supercell.


 Subroutine GETGRP returns: Found  1 space group operations
 (whereof  1 operations were pure point group operations)
 out of a pool of  8 trial point group operations.


The magnetic configuration has the point symmetry C_1 .


 Subroutine INISYM returns: Found  1 space group operations
 (whereof  1 operations are pure point group operations),
 and found     1 'primitive' translations

 
 
 KPOINTS: Generate by dasp                        

Automatic generation of k-mesh.
Space group operators:
 irot       det(A)        alpha          n_x          n_y          n_z        tau_x        tau_y        tau_z
    1     1.000000     0.000000     1.000000     0.000000     0.000000     0.000000     0.000000     0.000000
 
 Subroutine IBZKPT returns following result:
 ===========================================
 
 Found      1 irreducible k-points:
 
 Following reciprocal coordinates:
            Coordinates               Weight
  0.000000  0.000000  0.000000      1.000000
 
 Following cartesian coordinates:
            Coordinates               Weight
  0.000000  0.000000  0.000000      1.000000
 
 
 Subroutine IBZKPT_HF returns following result:
 ==============================================
 
 Found      1 k-points in 1st BZ
 the following      1 k-points will be used (e.g. in the exchange kernel)
 Following reciprocal coordinates:   # in IRBZ
  0.000000  0.000000  0.000000    1.00000000   1 t-inv F


--------------------------------------------------------------------------------------------------------




 Dimension of arrays:
   k-points           NKPTS =      1   k-points in BZ     NKDIM =      1   number of bands    NBANDS=   1136
   number of dos      NEDOS =    301   number of ions     NIONS =    192
   non local maximal  LDIM  =      6   non local SUM 2l+1 LMDIM =     18
   total plane-waves  NPLWV = ******
   max r-space proj   IRMAX =      1   max aug-charges    IRDMAX=   9247
   dimension x,y,z NGX =   108 NGY =   98 NGZ =   98
   dimension x,y,z NGXF=   216 NGYF=  196 NGZF=  196
   support grid    NGXF=   216 NGYF=  196 NGZF=  196
   ions per type =              47  49  96
   NGX,Y,Z   is equivalent  to a cutoff of  10.95, 10.63, 10.63 a.u.
   NGXF,Y,Z  is equivalent  to a cutoff of  21.89, 21.25, 21.25 a.u.

 SYSTEM =  unknown system                          
 POSCAR =  Zn47Ge49P96                             

 Startparameter for this run:
   NWRITE =      2    write-flag & timer
   PREC   = accura    normal or accurate (medium, high low for compatibility)
   ISTART =      1    job   : 0-new  1-cont  2-samecut
   ICHARG =      1    charge: 1-file 2-atom 10-const
   ISPIN  =      2    spin polarized calculation?
   LNONCOLLINEAR =      F non collinear calculations
   LSORBIT =      F    spin-orbit coupling
   INIWAV =      1    electr: 0-lowe 1-rand  2-diag
   LASPH  =      F    aspherical Exc in radial PAW
   METAGGA=      F    non-selfconsistent MetaGGA calc.

 Electronic Relaxation 1
   ENCUT  =  373.0 eV  27.41 Ry    5.24 a.u.  25.83 24.14 24.14*2*pi/ulx,y,z
   ENINI  =  373.0     initial cutoff
   ENAUG  =  575.9 eV  augmentation charge cutoff
   NELM   =    200;   NELMIN=  2; NELMDL=  0     # of ELM steps 
   EDIFF  = 0.1E-04   stopping-criterion for ELM
   LREAL  =      F    real-space projection
   NLSPLINE    = F    spline interpolate recip. space projectors
   LCOMPAT=      F    compatible to vasp.4.4
   GGA_COMPAT  = T    GGA compatible to vasp.4.4-vasp.4.6
   LMAXPAW     = -100 max onsite density
   LMAXMIX     =    2 max onsite mixed and CHGCAR
   VOSKOWN=      0    Vosko Wilk Nusair interpolation
   ROPT   =    0.00000   0.00000   0.00000
 Ionic relaxation
   EDIFFG = -.1E-01   stopping-criterion for IOM
   NSW    =      0    number of steps for IOM
   NBLOCK =      1;   KBLOCK =      1    inner block; outer block 
   IBRION =     -1    ionic relax: 0-MD 1-quasi-New 2-CG
   NFREE  =      0    steps in history (QN), initial steepest desc. (CG)
   ISIF   =      0    stress and relaxation
   IWAVPR =     10    prediction:  0-non 1-charg 2-wave 3-comb
   ISYM   =      3    0-nonsym 1-usesym 2-fastsym
   LCORR  =      T    Harris-Foulkes like correction to forces

   POTIM  = 0.5000    time-step for ionic-motion
   TEIN   =    0.0    initial temperature
   TEBEG  =    0.0;   TEEND  =   0.0 temperature during run
   SMASS  =  -3.00    Nose mass-parameter (am)
   estimated Nose-frequenzy (Omega)   =  0.10E-29 period in steps =****** mass=  -0.615E-26a.u.
   SCALEE = 1.0000    scale energy and forces
   NPACO  =    256;   APACO  = 16.0  distance and # of slots for P.C.
   PSTRESS=    0.0 pullay stress

  Mass of Ions in am
   POMASS =  65.39 72.61 30.97
  Ionic Valenz
   ZVAL   =  12.00 14.00  5.00
  Atomic Wigner-Seitz radii
   RWIGS  =  -1.00 -1.00 -1.00
  virtual crystal weights 
   VCA    =   1.00  1.00  1.00
   NELECT =    1731.0000    total number of electrons
   NUPDOWN=      -1.0000    fix difference up-down

 DOS related values:
   EMIN   =  10.00;   EMAX   =-10.00  energy-range for DOS
   EFERMI =   0.00
   ISMEAR =     0;   SIGMA  =   0.05  broadening in eV -4-tet -1-fermi 0-gaus

 Electronic relaxation 2 (details)
   IALGO  =     53    algorithm
   LDIAG  =      T    sub-space diagonalisation (order eigenvalues)
   LSUBROT=      F    optimize rotation matrix (better conditioning)
   TURBO    =      0    0=normal 1=particle mesh
   IRESTART =      0    0=no restart 2=restart with 2 vectors
   NREBOOT  =      0    no. of reboots
   NMIN     =      0    reboot dimension
   EREF     =   0.00    reference energy to select bands
   IMIX   =      4    mixing-type and parameters
     AMIX     =   0.40;   BMIX     =  1.00
     AMIX_MAG =   1.60;   BMIX_MAG =  1.00
     AMIN     =   0.10
     WC   =   100.;   INIMIX=   1;  MIXPRE=   1;  MAXMIX= -45

 Intra band minimization:
   WEIMIN = 0.0000     energy-eigenvalue tresh-hold
   EBREAK =  0.22E-08  absolut break condition
   DEPER  =   0.30     relativ break condition  

   TIME   =   0.40     timestep for ELM

  volume/ion in A,a.u.               =      20.08       135.50
  Fermi-wavevector in a.u.,A,eV,Ry     =   1.253600  2.368960 21.381729  1.571513
  Thomas-Fermi vector in A             =   2.387445
 
 Write flags
   LWAVE        =      T    write WAVECAR
   LDOWNSAMPLE  =      F    k-point downsampling of WAVECAR
   LCHARG       =      T    write CHGCAR
   LVTOT        =      F    write LOCPOT, total local potential
   LVHAR        =      T    write LOCPOT, Hartree potential only
   LELF         =      F    write electronic localiz. function (ELF)
   LORBIT       =     10    0 simple, 1 ext, 2 COOP (PROOUT), +10 PAW based schemes


 Dipole corrections
   LMONO  =      F    monopole corrections only (constant potential shift)
   LDIPOL =      F    correct potential (dipole corrections)
   IDIPOL =      0    1-x, 2-y, 3-z, 4-all directions 
   EPSILON=  1.0000000 bulk dielectric constant

 Core level calculations are selected ICORELEVEL =  1
 Exchange correlation treatment:
   GGA     =    PE    GGA type
   LEXCH   =     8    internal setting for exchange type
   VOSKOWN=      0    Vosko Wilk Nusair interpolation
   EXXOEP  =     0    0=HF, 1=EXX-LHF (local Hartree Fock) 2=EXX OEP
   LHFCALC =     T    Hartree Fock is set to
   LSYMGRAD=     F    symmetrize gradient (conserves proper symmetry)
   PRECFOCK=fast      Normal, Fast or Accurate (Low or Medium for compatibility)
   LRHFCALC=     F    long range Hartree Fock
   LRSCOR  =     F    long range correlation only (use DFT for short range part)
   LTHOMAS =     F    Thomas Fermi screening in HF
   LMODELHF=     F    short range full HF, long range fraction AEXX
   ENCUT4O =  -1.0   cutoff for four orbital integrals eV
   LMAXFOCK=     4    L truncation for augmentation on plane wave grid
   LMAXFOCKAE=  -1    L truncation for all-electron charge restoration on plane wave grid
   NMAXFOCKAE=   1    number of basis functions for all-electron charge restoration
   LFOCKAEDFT=     F  apply the AE augmentation even for DFT
   NKREDX  =     1    reduce k-point grid by
   NKREDY  =     1    reduce k-point grid by
   NKREDZ  =     1    reduce k-point grid by
   SHIFTRED=     F    shift reduced grid of Gamma
   HFKIDENT=     F    idential grid for each k-point
   ODDONLY =     F    use only odd q-grid points
   EVENONLY=     F    use only even q-grid points
   HFALPHA =   -1.0000 decay constant for conv. correction
   MCALPHA =    0.0000 extent of test-charge in conv. correction in multipole expansion
   AEXX    =    0.2700 exact exchange contribution
   HFSCREEN=    0.2000 screening length (either q_TF or 0.3 A-1)
   HFSCREENC=   0.2000 screening length for correlation (either q_TF or 0.3 A-1)
   HFRCUT  =    0.0000 spherical cutoff for potential kernel
   ALDAX   =    0.7300 LDA exchange part
   AGGAX   =    0.7300 GGA exchange part
   ALDAC   =    1.0000 LDA correlation
   AGGAC   =    1.0000 GGA correlation
   ENCUTFOCK=  -1.0 apply spherical cutoff to Coloumb kernel
   NBANDSGWLOW=     1    first orbital included in HF term
   NBLOCK_FOCK=    64    blocking factor in FOCK_ACC
 Linear response parameters
   LEPSILON=     F    determine dielectric tensor
   LRPA    =     F    only Hartree local field effects (RPA)
   LNABLA  =     F    use nabla operator in PAW spheres
   LVEL    =     F    velocity operator in full k-point grid
   LINTERFAST=   F  fast interpolation
   KINTER  =     0    interpolate to denser k-point grid
   CSHIFT  =0.1000    complex shift for real part using Kramers Kronig
   OMEGAMAX=  -1.0    maximum frequency
   DEG_THRESHOLD= 0.2000000E-02 threshold for treating states as degnerate
   RTIME   =   -0.100 relaxation time in fs
  (WPLASMAI=    0.000 imaginary part of plasma frequency in eV, 0.658/RTIME)
   DFIELD  = 0.0000000 0.0000000 0.0000000 field for delta impulse in time
 
 Orbital magnetization related:
   ORBITALMAG=     F  switch on orbital magnetization
   LCHIMAG   =     F  perturbation theory with respect to B field
   DQ        =  0.001000  dq finite difference perturbation B field
   LLRAUG    =     F  two centre corrections for induced B field



--------------------------------------------------------------------------------------------------------


 Static calculation
 charge density and potential will be updated during run
 spin polarized calculation
 Conjugate gradient for all bands (Freysoldt, et al. PRB 79, 241103 (2009))
 perform sub-space diagonalisation
    before iterative eigenvector-optimisation
 modified Broyden-mixing scheme, WC =      100.0
 initial mixing is a Kerker type mixing with AMIX =  0.4000 and BMIX =      1.0000
 Hartree-type preconditioning will be used
 using additional bands          270
 reciprocal scheme for non local part
 use partial core corrections
 no Harris-corrections to forces 
 use gradient corrections 
 use of overlap-Matrix (Vanderbilt PP)
 Gauss-broadening in eV      SIGMA  =   0.05


--------------------------------------------------------------------------------------------------------


  energy-cutoff  :      373.00
  volume of cell :     3855.18
      direct lattice vectors                 reciprocal lattice vectors
    16.404000000  0.000000000  0.000000000     0.060960741  0.000000000  0.000000000
     0.000000000 15.331377000  0.000000000     0.000000000  0.065225713 -0.001149307
     0.000000000  0.270104000 15.328998000     0.000000000  0.000000000  0.065235836

  length of vectors
    16.404000000 15.331377000 15.331377494     0.060960741  0.065235838  0.065235836


 
 old parameters found on file WAVECAR:
  energy-cutoff  :      373.00
  volume of cell :     3855.18
      direct lattice vectors                 reciprocal lattice vectors
    16.404000000  0.000000000  0.000000000     0.060960741  0.000000000  0.000000000
     0.000000000 15.331377000  0.000000000     0.000000000  0.065225713 -0.001149307
     0.000000000  0.270104000 15.328998000     0.000000000  0.000000000  0.065235836

  length of vectors

 
 k-points in units of 2pi/SCALE and weight: Generate by dasp                        
   0.00000000  0.00000000  0.00000000       1.000
 
 k-points in reciprocal lattice and weights: Generate by dasp                        
   0.00000000  0.00000000  0.00000000       1.000
 
 position of ions in fractional coordinates (direct lattice) 
   0.99829365  0.99949195  0.99735421
   0.16674579  0.62388677  0.37526499
   0.16629739  0.87468543  0.37230546
   0.99999933  0.49955064  0.75044666
   0.00011412  0.50027832  0.49951017
   0.16699549  0.12484036  0.87526904
   0.16676498  0.37524452  0.87520037
   0.99973517  0.24972716  0.50095280
   0.00169897  0.25263556  0.25050961
   0.16637146  0.87517259  0.62428290
   0.16605915  0.12503754  0.62460713
   0.00026198  0.74904726  0.00026882
   0.99988257  0.75048884  0.74971371
   0.16679427  0.37308592  0.12549469
   0.16636656  0.62335901  0.12450466
   0.33411210  0.99889439  0.25019370
   0.33421827  0.99944153  0.99896678
   0.50027851  0.62436257  0.37520965
   0.49999868  0.87507955  0.37491687
   0.33256237  0.50013623  0.75075189
   0.33316627  0.50036811  0.49995617
   0.50019845  0.12465392  0.87496439
   0.49999833  0.37600052  0.87399530
   0.33294129  0.24955056  0.50032964
   0.33339095  0.24989971  0.24955660
   0.49972042  0.87478316  0.62563532
   0.49942435  0.12551826  0.62499891
   0.33641895  0.74585678  0.99842964
   0.33325804  0.75049870  0.74931414
   0.49979931  0.37503342  0.12534176
   0.50057241  0.62499779  0.12447577
   0.66588497  0.99980350  0.25110013
   0.66660603  0.00044072  0.00009703
   0.83362628  0.62571303  0.37482564
   0.83369978  0.87769152  0.37530767
   0.66743659  0.49924364  0.74985787
   0.66673912  0.50068344  0.49949706
   0.83320252  0.12450445  0.87691056
   0.83323283  0.37479791  0.87475199
   0.66357726  0.25156702  0.50413945
   0.66577882  0.25103230  0.25055528
   0.83325093  0.87473223  0.62610682
   0.83362879  0.12549108  0.62663979
   0.66705668  0.74966890  0.00044642
   0.66683159  0.75003879  0.74962809
   0.83300310  0.37472849  0.12515841
   0.83394045  0.62539105  0.12495827
   0.17233938  0.87082939  0.12034066
   0.16877137  0.12345167  0.12353547
   0.99999854  0.75022093  0.49977014
   0.00158671  0.74875707  0.24989976
   0.16647794  0.37524384  0.62511788
   0.16643033  0.62483769  0.62516379
   0.99999900  0.24976588  0.00023296
   0.99983062  0.24958590  0.75095803
   0.16676820  0.12555888  0.37411092
   0.16682407  0.37507409  0.37560950
   0.00136806  0.00024217  0.75091000
   0.99840880  0.00009317  0.50123965
   0.16645984  0.62526823  0.87493746
   0.16765598  0.87429716  0.87515640
   0.99862999  0.49908661  0.24975607
   0.00016709  0.49903967  0.00041259
   0.50012930  0.87500063  0.12476550
   0.49999882  0.12477631  0.12522249
   0.33302575  0.75050995  0.49932052
   0.33394564  0.74875821  0.25013180
   0.49877605  0.37617368  0.62542438
   0.49999811  0.62490600  0.62508640
   0.33434335  0.25005402  0.99909127
   0.33320468  0.24972471  0.75024533
   0.49986839  0.12523273  0.37499674
   0.49958494  0.37488372  0.37538838
   0.33312901  0.00023064  0.74946796
   0.33293227  0.99957965  0.49998111
   0.50122031  0.62456958  0.87381707
   0.50041203  0.87460832  0.87511517
   0.33322931  0.49991158  0.24968311
   0.33328988  0.49913284  0.00016656
   0.83322888  0.87588828  0.12443533
   0.83122433  0.12646192  0.12654489
   0.66697274  0.75067520  0.49948605
   0.66706608  0.75001775  0.25041699
   0.83353889  0.37505732  0.62472790
   0.83356670  0.62483260  0.62515910
   0.66565448  0.25090716  0.99994286
   0.66670572  0.24982986  0.75086118
   0.82765725  0.12965326  0.37916796
   0.83234193  0.37484047  0.37570105
   0.66676567  0.00031449  0.75008610
   0.66605026  0.99986589  0.50123855
   0.83352019  0.62487905  0.87475100
   0.83317112  0.87439104  0.87492014
   0.66686998  0.50052910  0.24976532
   0.66679351  0.49974945  0.00027310
   0.00000321  0.00682713  0.24316473
   0.08230609  0.00120052  0.37768059
   0.24927698  0.12382189  0.24964729
   0.09214116  0.99518726  0.11393384
   0.25090553  0.87285738  0.24737922
   0.24986473  0.62631033  0.50124981
   0.08269526  0.74959241  0.37515872
   0.24998229  0.87543132  0.49844909
   0.08323728  0.74896444  0.62365432
   0.08334845  0.50109276  0.87637817
   0.24854043  0.62539248  0.75014848
   0.08415355  0.50002277  0.62506057
   0.24981667  0.37362409  0.74902015
   0.25134817  0.12577207  0.00017437
   0.08245595  0.24991916  0.87556504
   0.25134292  0.37414050  0.00027661
   0.08369244  0.24638302  0.12409127
   0.08311436  0.25126737  0.62680578
   0.24894575  0.37490606  0.50041861
   0.08459179  0.24998812  0.37590851
   0.24941679  0.12344585  0.49845543
   0.24974988  0.87641189  0.75027183
   0.08175305  0.99996917  0.62484767
   0.25076897  0.12498820  0.74964624
   0.08450139  0.99877401  0.87541670
   0.08429617  0.75043467  0.12551766
   0.25440225  0.87116536  0.99626874
   0.08438602  0.75012555  0.87501282
   0.25008046  0.62291292  0.99870914
   0.25000142  0.37574016  0.25151576
   0.08212288  0.49809528  0.12530895
   0.25084983  0.62452884  0.24980001
   0.08307582  0.49843600  0.37341815
   0.41672936  0.00114088  0.37641589
   0.58214223  0.12522922  0.25020278
   0.41785554  0.99979420  0.12476792
   0.58326870  0.87358053  0.24885514
   0.58353104  0.62668139  0.50107422
   0.41596370  0.74958246  0.37495451
   0.58403382  0.87504166  0.50041510
   0.41646751  0.74891897  0.62331595
   0.41656742  0.50149161  0.87607770
   0.58329284  0.62426759  0.74915655
   0.41670383  0.50083698  0.62572807
   0.58342880  0.37391938  0.74850509
   0.58312498  0.12625003  0.00118357
   0.41645445  0.25028024  0.87429714
   0.58354286  0.37570147  0.99971559
   0.41687261  0.24881399  0.12374773
   0.41621438  0.25149868  0.62629797
   0.58076289  0.37645768  0.50096998
   0.41740186  0.24980032  0.37514061
   0.58275032  0.12384294  0.49923079
   0.58366954  0.87622907  0.75122696
   0.41530635  0.00010454  0.62476455
   0.58445692  0.12500107  0.74984051
   0.41715473  0.99866909  0.87295033
   0.41724631  0.75076636  0.12615432
   0.58259597  0.87485644  0.00019827
   0.41923389  0.74902649  0.87353999
   0.58378242  0.62370093  0.99849651
   0.58284193  0.37704753  0.25132663
   0.41553828  0.50015639  0.12499741
   0.58469329  0.62523180  0.24988981
   0.41632694  0.49877247  0.37376573
   0.74908968  0.00261656  0.37714010
   0.90785769  0.13604933  0.25480969
   0.75072004  0.00034890  0.12617364
   0.91769265  0.87231658  0.24879289
   0.91676148  0.62633646  0.50103291
   0.75001640  0.75154588  0.37456179
   0.91730149  0.87483148  0.50040090
   0.75013221  0.74874603  0.62368540
   0.75017990  0.50097719  0.87637315
   0.91584323  0.62493676  0.74997510
   0.75145853  0.49984670  0.62460303
   0.91665076  0.37361892  0.74890538
   0.91630307  0.12590932  0.00361322
   0.74865323  0.24972194  0.87585506
   0.91754213  0.37443413  0.00007836
   0.74864981  0.24982314  0.12422438
   0.74991530  0.25128794  0.62708447
   0.91561060  0.37498143  0.49987244
   0.74559556  0.25372872  0.37883129
   0.91570084  0.12447583  0.49956306
   0.91692017  0.87658081  0.75155796
   0.74914508  0.00019578  0.62546870
   0.91787526  0.12468823  0.75190273
   0.74999473  0.99848295  0.87425533
   0.75058213  0.75154060  0.12654927
   0.91540477  0.87409045  0.00000664
   0.75105158  0.74958004  0.87509060
   0.91688381  0.62319373  0.99872881
   0.91549700  0.37457851  0.25122474
   0.74922983  0.50035107  0.12501025
   0.91824375  0.62514791  0.25002688
   0.75024881  0.49972438  0.37358547
 
 position of ions in cartesian coordinates  (Angst):
  16.37600896 15.59297724 15.28844068
   2.73529801  9.66640386  5.75243634
   2.72794247 13.51069327  5.70706970
  16.40398907  7.86149787 11.50359529
   0.00187209  7.80487515  7.65699044
   2.73939406  2.15038830 13.41699744
   2.73561268  5.98941033 13.41594470
  16.39965580  3.96397063  7.67910445
   0.02786990  3.94091467  3.84006135
   2.72915748 13.58622225  9.56963134
   2.72403436  2.08570659  9.57460143
   0.00429748 11.48399860  0.00412073
  16.40207373 11.70852795 11.49236000
   2.73609327  5.75381745  1.92370787
   2.72907711  9.59058124  1.90853173
   5.48077482 15.38200481  3.83521878
   5.48251653 15.59263977 15.31315985
   8.20656874  9.67368353  5.75158803
   8.20197829 13.51744099  5.74709989
   5.45535319  7.87055814 11.50827415
   5.46525943  7.80637234  7.66382713
   8.20525541  2.14744757 13.41232741
   8.20197258  6.00067534 13.39747213
   5.46156890  3.96109473  7.66955200
   5.46894508  3.89871284  3.82545267
   8.19741370 13.58061709  9.59036253
   8.19255697  2.09318253  9.58060706
   5.51861638 11.70469130 15.30492593
   5.46676490 11.70857128 11.48623492
   8.19870788  5.78363404  1.92136353
   8.21138985  9.61569811  1.90808890
  10.92317708 15.39618748  3.84911338
  10.93500533  0.00678310  0.00148742
  13.67480545  9.69428432  5.74570156
  13.67601113 13.55759163  5.75309046
  10.94862986  7.85663206 11.49456976
  10.93718857  7.81108268  7.65678936
  13.66785416  2.14568168 13.44216019
  13.66835127  5.98244214 13.40907152
  10.88532143  3.99303897  7.72795263
  10.92143571  3.91634683  3.84076132
  13.66864824 13.57996356  9.59759018
  13.67484668  2.09320902  9.60576005
  10.94239780 11.49357708  0.00684311
  10.93870536 11.70160495 11.49104749
  13.66458292  5.77890958  1.91855306
  13.67995915  9.62185772  1.91548505
   2.82705521 13.38351810  1.84470179
   2.76852551  1.92605145  1.89367503
  16.40397607 11.63690982  7.66097553
   0.02602838 11.54697581  3.83071296
   2.73090417  5.92185167  9.58243070
   2.73012320  9.74848149  9.58313442
  16.40398367  3.82931774  0.00357102
  16.40122156  4.02933229 11.51143411
   2.73566553  2.02603944  5.73474549
   2.73658198  5.85185584  5.75771730
   0.02244171  0.20653666 11.51069784
  16.37789794  0.13681521  7.68350164
   2.73060724  9.82254700 13.41191458
   2.75022865 13.64056261 13.41527069
  16.38152639  7.71914505  3.82851027
   0.00274088  7.65107672  0.00632460
   8.20412105 13.44866417  1.91253018
   8.20198062  1.94681575  1.91953531
   5.46295433 11.64121952  7.65408327
   5.47804435 11.54705601  3.83426985
   8.18192234  5.93619014  9.58712911
   8.20196900  9.74950782  9.58194812
   5.48456834  4.10353092 15.31506809
   5.46588950  4.03126788 11.50050919
   8.19984112  2.02127831  5.74832423
   8.19519132  5.84887759  5.75432766
   5.46464832  0.20597038 11.48859282
   5.46142100 15.45997936  7.66420949
   8.22201805  9.81153320 13.39474008
   8.20875901 13.64532200 13.41463867
   5.46629365  7.73177336  3.82739189
   5.46728724  7.65243867  0.00255320
  13.66828656 13.46218391  1.90746888
  13.63540389  1.97301569  1.93980635
  10.94102090 11.64379771  7.65662065
  10.94255205 11.56644358  3.83864149
  13.67337197  5.91888664  9.57645267
  13.67382818  9.74840217  9.58306259
  10.91939615  4.11684078 15.32812215
  10.93664057  4.03304643 11.50994949
  13.57688950  2.09017782  5.81226487
  13.65373704  5.84829884  5.75912061
  10.93762411  0.20742278 11.49806832
  10.92588840 15.46470746  7.68348467
  13.67306514  9.81653010 13.40905627
  13.66733909 13.64193814 13.41164909
  10.93933509  7.74126289  3.82865203
  10.93808068  7.66192092  0.00418634
   0.00005262  0.17034909  3.72747162
   1.35014905  0.12041873  5.78946496
   4.08913962  1.96579082  3.82684280
   1.51148352 15.28836502  1.74649165
   4.11585435 13.44892372  3.79207559
   4.09878111  9.73758944  7.68365731
   1.35653297 11.59361568  5.75080728
   4.10070948 13.55620071  7.64072512
   1.36542427 11.65110768  9.55999590
   1.36724791  7.91915520 13.43399928
   4.07705723  9.79074601 11.49902458
   1.38045482  7.83486900  9.58155229
   4.09799266  5.93048506 11.48172831
   4.12311535  1.92830614  0.00267299
   1.35260737  4.06809855 13.42153469
   4.12302928  5.73616379  0.00424013
   1.37289073  3.81090857  1.90219487
   1.36340793  4.02157756  9.60830456
   4.08370608  5.88299123  7.67091590
   1.38764366  3.93419654  5.76230087
   4.09143297  2.02722966  7.64082226
   4.09689699 13.63925249 11.50091531
   1.34107695 15.49967816  9.57828862
   4.11361422  2.11872374 11.49132578
   1.38616082 15.54903438 13.41926083
   1.38279444 11.53909969  1.92406001
   4.17321451 13.62526080 15.27180159
   1.38426828 11.73680209 13.41306974
   4.10231991  9.81986809 15.30921038
   4.10102325  5.82854941  3.85548455
   1.34714365  7.67033301  1.92086062
   4.11494068  9.64235915  3.82918380
   1.36277568  7.74257194  5.72412601
   6.83602841  0.11916271  5.77007840
   9.54946121  1.98751713  3.83535785
   6.85450230 15.36192211  1.91256722
   9.56793971 13.46040925  3.81469997
   9.57224323  9.74323079  7.68096572
   6.82346856 11.59340801  5.74767686
   9.58049079 13.55075768  7.67086213
   6.83173307 11.65031920  9.55480898
   6.83337199  7.92518908 13.42939325
   9.56833580  9.77323188 11.48381932
   6.83560958  7.84753228  9.59178429
   9.57056599  5.93487313 11.47383296
   9.56558224  1.93590649  0.01814295
   6.83151872  4.07329193 13.40209918
   9.57243701  6.03004798 15.32463828
   6.83837832  3.84808577  1.89692865
   6.82758069  4.02498674  9.60052038
   9.52683450  5.90692867  7.67936783
   6.84706014  3.93110979  5.75052971
   9.55943621  2.03352697  7.65270773
   9.57451506 13.63670757 11.51555656
   6.81268541  0.17035416  9.57701459
   9.58743124  2.11897349 11.49430363
   6.84300613 15.54675963 13.38145388
   6.84450846 11.54435685  1.93381925
   9.55690422 13.41280752  0.00303931
   6.87711280 11.71955415 13.39049283
   9.57636683  9.83189201 15.30595097
   9.56093903  5.84854209  3.85258537
   6.81648992  7.70184847  1.91608498
   9.59130868  9.65316067  3.83056046
   6.82942717  7.74782444  5.72945406
  12.28806714  0.14198258  5.78117983
  14.89249748  2.15464868  3.90597729
  12.31481161  0.03942918  1.93411551
  15.05383020 13.44101435  3.81374564
  15.03855530  9.73793135  7.68033244
  12.30326900 11.62340384  5.74165691
  15.04741357 13.54753157  7.67064444
  12.30516872 11.64776765  9.56047225
  12.30595105  7.91738212 13.43392220
  15.02349241  9.78371233 11.49636677
  12.32692568  7.83204605  9.57453863
  15.03673908  5.93037485 11.47996904
  15.03103559  1.93133917  0.05538703
  12.28090755  4.06515321 13.42598043
  15.05136103  5.74061198  0.00120115
  12.28085156  3.86368621  1.90423529
  12.30161064  4.02196823  9.61257653
  15.01967623  5.88399922  7.66254362
  12.23074950  3.99233455  5.80710404
  15.02115654  2.04331992  7.65780114
  15.04115851 13.64218964 11.52063046
  12.28897594  0.17194311  9.58780838
  15.05682576  2.11473418 11.52591545
  12.30291357 15.54425834 13.40145825
  12.31254929 11.55633375  1.93987352
  15.01629991 13.40101200  0.00010181
  12.32025018 11.72845973 13.41426204
  15.04056209  9.82417865 15.30951188
  15.01781283  5.81066116  3.85102360
  12.29036620  7.70483662  1.91628192
  15.06287042  9.65191150  3.83266160
  12.30708144  7.76236976  5.72669099
 


--------------------------------------------------------------------------------------------------------


 use parallel FFT for orbitals z direction half grid
 k-point  1 :   0.0000 0.0000 0.0000  plane waves:   31525

 maximum and minimum number of plane-waves per node :      3949     3935

 maximum number of plane-waves:     31525
 maximum index in each direction: 
   IXMAX=   25   IYMAX=   24   IZMAX=   24
   IXMIN=  -25   IYMIN=  -24   IZMIN=    0


 parallel 3D FFT for wavefunctions:
    minimum data exchange during FFTs selected (reduces bandwidth)
 parallel 3D FFT for charge:
    minimum data exchange during FFTs selected (reduces bandwidth)


 FFT grid for exact exchange (Hartree Fock) 
  NGX = 54; NGY = 50; NGZ = 50

 use parallel FFT for orbitals z direction half grid
 
 Radii for the augmentation spheres in the non-local exchange
 for species   1 augmentation radius   1.230 (default was   0.952)
       energy cutoff for augmentation   1492.0
 for species   2 augmentation radius   1.227 (default was   0.991)
       energy cutoff for augmentation   1492.0
 for species   3 augmentation radius   1.022 (default was   0.959)
       energy cutoff for augmentation   1492.0

 real space projection operators:
  total allocation   :       6053.48 KBytes
  max/ min on nodes  :        935.98        560.03

 Maximum index for augmentation-charges in exchange           52
  SETUP_FOCK is finished

 total amount of memory used by VASP MPI-rank0    96914. kBytes
=======================================================================

   base      :      30000. kBytes
   nonl-proj :      13847. kBytes
   fftplans  :       5975. kBytes
   grid      :      17618. kBytes
   one-center:        373. kBytes
   HF        :        194. kBytes
   nonlr-proj:        881. kBytes
   wavefun   :      28026. kBytes
 
     INWAV:  cpu time    3.8850: real time    4.8842
 Broyden mixing: mesh for mixing (old mesh)
   NGX = 51   NGY = 49   NGZ = 49
  (NGX  =216   NGY  =196   NGZ  =196)
  gives a total of 122451 points

 initial charge density was supplied:
 number of electron    1731.0000217 magnetization       0.0000005
 charge density for first step will be calculated from the start-wavefunctions


--------------------------------------------------------------------------------------------------------


 Maximum index for augmentation-charges          505 (set IRDMAX)


--------------------------------------------------------------------------------------------------------


 initial charge from wavefunction
 First call to EWALD:  gamma=   0.113
 Maximum number of real-space cells 3x 3x 3
 Maximum number of reciprocal cells 3x 3x 3

    FEWALD:  cpu time    0.0064: real time    0.0064


--------------------------------------- Iteration      1(   1)  ---------------------------------------


    POTLOK:  cpu time    0.5574: real time    0.5588
    SETDIJ:  cpu time    0.1983: real time    0.2016
    TRIAL :  cpu time  118.8574: real time  140.3754
    CORREC:  cpu time    0.0010: real time    0.0011
    CHARGE:  cpu time    0.2880: real time    0.3187
    --------------------------------------------
      LOOP:  cpu time  119.9105: real time  141.4965

 eigenvalue-minimisations  :     0
 total energy-change (2. order) :-0.1121865E+04  (-0.1488379E+02)
 number of electron    1731.0000218 magnetization       0.0000009
 augmentation part      753.1521577 magnetization       0.0005892

 Free energy of the ion-electron system (eV)
  ---------------------------------------------------
  alpha Z        PSCENC =      6939.29392558
  Ewald energy   TEWEN  =   -126943.35665963
  -Hartree energ DENC   =    -71958.14730167
  -exchange      EXHF   =      4589.47530598
  -V(xc)+E(xc)   XCENC  =      4880.19952678
  PAW double counting   =    152959.93958345  -180073.77969887
  entropy T*S    EENTRO =        -0.03522289
  eigenvalues    EBANDS =    -17388.27042793
  atomic energy  EATOM  =    225872.81875723
  ---------------------------------------------------
  free energy    TOTEN  =     -1121.86474485 eV

  energy without entropy =    -1121.82952196  energy(sigma->0) =    -1121.84713341
  exchange ACFDT corr.  =        -0.02735849  see jH, gK, PRB 81, 115126


--------------------------------------------------------------------------------------------------------




--------------------------------------- Iteration      1(   2)  ---------------------------------------


    POTLOK:  cpu time    0.5360: real time    0.5371
    SETDIJ:  cpu time    0.2047: real time    0.2049
    TRIAL :  cpu time  131.3543: real time  144.2887
    CORREC:  cpu time    0.0012: real time    0.0013
    CHARGE:  cpu time    0.2982: real time    0.3200
    --------------------------------------------
      LOOP:  cpu time  132.3963: real time  145.3605

 eigenvalue-minimisations  :     0
 total energy-change (2. order) :-0.4722784E+01  (-0.7747745E+01)
 number of electron    1731.0000217 magnetization      -0.0000150
 augmentation part      752.7289614 magnetization       0.0007075

 Free energy of the ion-electron system (eV)
  ---------------------------------------------------
  alpha Z        PSCENC =      6939.29392558
  Ewald energy   TEWEN  =   -126943.35665963
  -Hartree energ DENC   =    -72558.76573385
  -exchange      EXHF   =      4607.03410389
  -V(xc)+E(xc)   XCENC  =      4899.87577015
  PAW double counting   =    153837.22479830  -181491.58706672
  entropy T*S    EENTRO =        -0.03282512
  eigenvalues    EBANDS =    -16289.09020088
  atomic energy  EATOM  =    225872.81875723
  ---------------------------------------------------
  free energy    TOTEN  =     -1126.58752882 eV

  energy without entropy =    -1126.55470369  energy(sigma->0) =    -1126.57111626
  exchange ACFDT corr.  =        -0.02553948  see jH, gK, PRB 81, 115126


--------------------------------------------------------------------------------------------------------




--------------------------------------- Iteration      1(   3)  ---------------------------------------


    POTLOK:  cpu time    0.5309: real time    0.5311
    SETDIJ:  cpu time    0.2005: real time    0.2007
    TRIAL :  cpu time  132.4093: real time  143.7282
    CORREC:  cpu time    0.0011: real time    0.0013
    CHARGE:  cpu time    0.3138: real time    0.3213
    --------------------------------------------
      LOOP:  cpu time  133.4577: real time  144.7923

 eigenvalue-minimisations  :     0
 total energy-change (2. order) :-0.4084876E+01  (-0.1316328E+01)
 number of electron    1731.0000217 magnetization      -0.0000325
 augmentation part      752.8841013 magnetization       0.0004341

 Free energy of the ion-electron system (eV)
  ---------------------------------------------------
  alpha Z        PSCENC =      6939.29392558
  Ewald energy   TEWEN  =   -126943.35665963
  -Hartree energ DENC   =    -72195.26112801
  -exchange      EXHF   =      4603.09667549
  -V(xc)+E(xc)   XCENC  =      4890.45065162
  PAW double counting   =    153567.69972749  -180937.36394147
  entropy T*S    EENTRO =        -0.03120857
  eigenvalues    EBANDS =    -16928.01758765
  atomic energy  EATOM  =    225872.81875723
  ---------------------------------------------------
  free energy    TOTEN  =     -1130.67240447 eV

  energy without entropy =    -1130.64119590  energy(sigma->0) =    -1130.65680018
  exchange ACFDT corr.  =        -0.02419669  see jH, gK, PRB 81, 115126


--------------------------------------------------------------------------------------------------------




--------------------------------------- Iteration      1(   4)  ---------------------------------------


    POTLOK:  cpu time    0.5330: real time    0.5331
    SETDIJ:  cpu time    0.2017: real time    0.2020
    TRIAL :  cpu time  132.2645: real time  143.9124
    CORREC:  cpu time    0.0011: real time    0.0012
    CHARGE:  cpu time    0.3130: real time    0.3205
    --------------------------------------------
      LOOP:  cpu time  133.3153: real time  144.9779

 eigenvalue-minimisations  :     0
 total energy-change (2. order) :-0.6223353E+00  (-0.1084753E+01)
 number of electron    1731.0000217 magnetization      -0.0000571
 augmentation part      754.3914802 magnetization       0.0002404

 Free energy of the ion-electron system (eV)
  ---------------------------------------------------
  alpha Z        PSCENC =      6939.29392558
  Ewald energy   TEWEN  =   -126943.35665963
  -Hartree energ DENC   =    -72075.92823305
  -exchange      EXHF   =      4602.84009441
  -V(xc)+E(xc)   XCENC  =      4887.61939083
  PAW double counting   =    153522.79885418  -180835.38018261
  entropy T*S    EENTRO =        -0.03023891
  eigenvalues    EBANDS =    -17101.96947814
  atomic energy  EATOM  =    225872.81875723
  ---------------------------------------------------
  free energy    TOTEN  =     -1131.29473979 eV

  energy without entropy =    -1131.26450088  energy(sigma->0) =    -1131.27962033
  exchange ACFDT corr.  =        -0.02296030  see jH, gK, PRB 81, 115126


--------------------------------------------------------------------------------------------------------




--------------------------------------- Iteration      1(   5)  ---------------------------------------


    POTLOK:  cpu time    0.5307: real time    0.5307
    SETDIJ:  cpu time    0.2003: real time    0.2006
    TRIAL :  cpu time  132.3494: real time  143.7028
    CORREC:  cpu time    0.0013: real time    0.0014
    CHARGE:  cpu time    0.3130: real time    0.3214
    --------------------------------------------
      LOOP:  cpu time  133.3967: real time  144.7652

 eigenvalue-minimisations  :     0
 total energy-change (2. order) :-0.5091911E+00  (-0.2907772E+00)
 number of electron    1731.0000217 magnetization      -0.0000893
 augmentation part      754.4085416 magnetization       0.0000717

 Free energy of the ion-electron system (eV)
  ---------------------------------------------------
  alpha Z        PSCENC =      6939.29392558
  Ewald energy   TEWEN  =   -126943.35665963
  -Hartree energ DENC   =    -72243.30176193
  -exchange      EXHF   =      4608.15177451
  -V(xc)+E(xc)   XCENC  =      4893.15445137
  PAW double counting   =    153748.22462666  -181182.97397704
  entropy T*S    EENTRO =        -0.02971734
  eigenvalues    EBANDS =    -16823.78482874
  atomic energy  EATOM  =    225872.81875723
  ---------------------------------------------------
  free energy    TOTEN  =     -1131.80393089 eV

  energy without entropy =    -1131.77421355  energy(sigma->0) =    -1131.78907222
  exchange ACFDT corr.  =        -0.02240680  see jH, gK, PRB 81, 115126


--------------------------------------------------------------------------------------------------------




--------------------------------------- Iteration      1(   6)  ---------------------------------------


    POTLOK:  cpu time    0.5373: real time    0.5374
    SETDIJ:  cpu time    0.2015: real time    0.2016
    TRIAL :  cpu time  131.6723: real time  144.3977
    CORREC:  cpu time    0.0011: real time    0.0012
    CHARGE:  cpu time    0.2930: real time    0.3187
    --------------------------------------------
      LOOP:  cpu time  132.7071: real time  145.4658

 eigenvalue-minimisations  :     0
 total energy-change (2. order) :-0.2031169E+00  (-0.1750989E+00)
 number of electron    1731.0000217 magnetization      -0.0001206
 augmentation part      753.9844454 magnetization      -0.0000405

 Free energy of the ion-electron system (eV)
  ---------------------------------------------------
  alpha Z        PSCENC =      6939.29392558
  Ewald energy   TEWEN  =   -126943.35665963
  -Hartree energ DENC   =    -72249.37587210
  -exchange      EXHF   =      4609.00513717
  -V(xc)+E(xc)   XCENC  =      4893.56161538
  PAW double counting   =    153734.63316346  -181150.83293786
  entropy T*S    EENTRO =        -0.02944732
  eigenvalues    EBANDS =    -16837.72445971
  atomic energy  EATOM  =    225872.81875723
  ---------------------------------------------------
  free energy    TOTEN  =     -1132.00704782 eV

  energy without entropy =    -1131.97760050  energy(sigma->0) =    -1131.99232416
  exchange ACFDT corr.  =        -0.02212810  see jH, gK, PRB 81, 115126


--------------------------------------------------------------------------------------------------------




--------------------------------------- Iteration      1(   7)  ---------------------------------------


    POTLOK:  cpu time    0.5313: real time    0.5315
    SETDIJ:  cpu time    0.2016: real time    0.2018
    TRIAL :  cpu time  132.0937: real time  143.7961
    CORREC:  cpu time    0.0011: real time    0.0013
    CHARGE:  cpu time    0.3099: real time    0.3212
    --------------------------------------------
      LOOP:  cpu time  133.1397: real time  144.8602

 eigenvalue-minimisations  :     0
 total energy-change (2. order) :-0.8146630E-01  (-0.9067160E-01)
 number of electron    1731.0000217 magnetization      -0.0001461
 augmentation part      754.2797176 magnetization      -0.0000287

 Free energy of the ion-electron system (eV)
  ---------------------------------------------------
  alpha Z        PSCENC =      6939.29392558
  Ewald energy   TEWEN  =   -126943.35665963
  -Hartree energ DENC   =    -72200.43543099
  -exchange      EXHF   =      4607.99409637
  -V(xc)+E(xc)   XCENC  =      4892.08767981
  PAW double counting   =    153643.18946414  -181018.99536227
  entropy T*S    EENTRO =        -0.02930266
  eigenvalues    EBANDS =    -16924.65553704
  atomic energy  EATOM  =    225872.81875723
  ---------------------------------------------------
  free energy    TOTEN  =     -1132.08851412 eV

  energy without entropy =    -1132.05921146  energy(sigma->0) =    -1132.07386279
  exchange ACFDT corr.  =        -0.02199406  see jH, gK, PRB 81, 115126


--------------------------------------------------------------------------------------------------------




--------------------------------------- Iteration      1(   8)  ---------------------------------------


    POTLOK:  cpu time    0.5326: real time    0.5329
    SETDIJ:  cpu time    0.2022: real time    0.2024
    TRIAL :  cpu time  132.7011: real time  143.9923
    CORREC:  cpu time    0.0010: real time    0.0012
    CHARGE:  cpu time    0.3002: real time    0.3216
    --------------------------------------------
      LOOP:  cpu time  133.7396: real time  145.0591

 eigenvalue-minimisations  :     0
 total energy-change (2. order) :-0.5321555E-01  (-0.1900111E-01)
 number of electron    1731.0000217 magnetization      -0.0001686
 augmentation part      754.3633671 magnetization      -0.0000055

 Free energy of the ion-electron system (eV)
  ---------------------------------------------------
  alpha Z        PSCENC =      6939.29392558
  Ewald energy   TEWEN  =   -126943.35665963
  -Hartree energ DENC   =    -72241.32782427
  -exchange      EXHF   =      4609.00151563
  -V(xc)+E(xc)   XCENC  =      4893.33070576
  PAW double counting   =    153671.04037134  -181076.03048274
  entropy T*S    EENTRO =        -0.02922654
  eigenvalues    EBANDS =    -16856.88273590
  atomic energy  EATOM  =    225872.81875723
  ---------------------------------------------------
  free energy    TOTEN  =     -1132.14172967 eV

  energy without entropy =    -1132.11250313  energy(sigma->0) =    -1132.12711640
  exchange ACFDT corr.  =        -0.02192425  see jH, gK, PRB 81, 115126


--------------------------------------------------------------------------------------------------------




--------------------------------------- Iteration      1(   9)  ---------------------------------------


    POTLOK:  cpu time    0.5328: real time    0.5336
    SETDIJ:  cpu time    0.2009: real time    0.2011
    TRIAL :  cpu time  131.7669: real time  143.6910
    CORREC:  cpu time    0.0011: real time    0.0012
    CHARGE:  cpu time    0.3117: real time    0.3198
    --------------------------------------------
      LOOP:  cpu time  132.8151: real time  144.7556

 eigenvalue-minimisations  :     0
 total energy-change (2. order) :-0.1309766E-01  (-0.1550824E-01)
 number of electron    1731.0000217 magnetization      -0.0001894
 augmentation part      754.2543068 magnetization      -0.0000079

 Free energy of the ion-electron system (eV)
  ---------------------------------------------------
  alpha Z        PSCENC =      6939.29392558
  Ewald energy   TEWEN  =   -126943.35665963
  -Hartree energ DENC   =    -72249.18157831
  -exchange      EXHF   =      4609.29426577
  -V(xc)+E(xc)   XCENC  =      4893.58245557
  PAW double counting   =    153672.43718943  -181080.14169010
  entropy T*S    EENTRO =        -0.02918556
  eigenvalues    EBANDS =    -16846.87226633
  atomic energy  EATOM  =    225872.81875723
  ---------------------------------------------------
  free energy    TOTEN  =     -1132.15482733 eV

  energy without entropy =    -1132.12564177  energy(sigma->0) =    -1132.14023455
  exchange ACFDT corr.  =        -0.02188982  see jH, gK, PRB 81, 115126


--------------------------------------------------------------------------------------------------------




--------------------------------------- Iteration      1(  10)  ---------------------------------------


    POTLOK:  cpu time    0.5352: real time    0.5352
    SETDIJ:  cpu time    0.2009: real time    0.2012
    TRIAL :  cpu time  132.2753: real time  143.6924
    CORREC:  cpu time    0.0010: real time    0.0011
    CHARGE:  cpu time    0.3145: real time    0.3232
    --------------------------------------------
      LOOP:  cpu time  133.3290: real time  144.7621

 eigenvalue-minimisations  :     0
 total energy-change (2. order) :-0.6431250E-02  (-0.7579548E-02)
 number of electron    1731.0000217 magnetization      -0.0002102
 augmentation part      754.3691186 magnetization       0.0000101

 Free energy of the ion-electron system (eV)
  ---------------------------------------------------
  alpha Z        PSCENC =      6939.29392558
  Ewald energy   TEWEN  =   -126943.35665963
  -Hartree energ DENC   =    -72229.90622422
  -exchange      EXHF   =      4608.94937469
  -V(xc)+E(xc)   XCENC  =      4893.00294741
  PAW double counting   =    153649.55481423  -181043.76265997
  entropy T*S    EENTRO =        -0.02916203
  eigenvalues    EBANDS =    -16878.72634834
  atomic energy  EATOM  =    225872.81875723
  ---------------------------------------------------
  free energy    TOTEN  =     -1132.16125858 eV

  energy without entropy =    -1132.13209655  energy(sigma->0) =    -1132.14667756
  exchange ACFDT corr.  =        -0.02187361  see jH, gK, PRB 81, 115126


--------------------------------------------------------------------------------------------------------




--------------------------------------- Iteration      1(  11)  ---------------------------------------


    POTLOK:  cpu time    0.5313: real time    0.5313
    SETDIJ:  cpu time    0.2010: real time    0.2012
    TRIAL :  cpu time  132.6717: real time  144.0248
    CORREC:  cpu time    0.0011: real time    0.0013
    CHARGE:  cpu time    0.3174: real time    0.3252
    --------------------------------------------
      LOOP:  cpu time  133.7265: real time  145.0945

 eigenvalue-minimisations  :     0
 total energy-change (2. order) :-0.4366977E-02  (-0.1483415E-02)
 number of electron    1731.0000217 magnetization      -0.0002319
 augmentation part      754.3923227 magnetization       0.0000194

 Free energy of the ion-electron system (eV)
  ---------------------------------------------------
  alpha Z        PSCENC =      6939.29392558
  Ewald energy   TEWEN  =   -126943.35665963
  -Hartree energ DENC   =    -72241.40741022
  -exchange      EXHF   =      4609.31187827
  -V(xc)+E(xc)   XCENC  =      4893.37065286
  PAW double counting   =    153665.49405992  -181068.71718059
  entropy T*S    EENTRO =        -0.02914982
  eigenvalues    EBANDS =    -16858.94448695
  atomic energy  EATOM  =    225872.81875723
  ---------------------------------------------------
  free energy    TOTEN  =     -1132.16562555 eV

  energy without entropy =    -1132.13647574  energy(sigma->0) =    -1132.15105065
  exchange ACFDT corr.  =        -0.02186489  see jH, gK, PRB 81, 115126


--------------------------------------------------------------------------------------------------------




--------------------------------------- Iteration      1(  12)  ---------------------------------------


    POTLOK:  cpu time    0.5328: real time    0.5328
    SETDIJ:  cpu time    0.2037: real time    0.2039
    TRIAL :  cpu time  132.1524: real time  143.9197
    CORREC:  cpu time    0.0011: real time    0.0013
    CHARGE:  cpu time    0.3126: real time    0.3228
    --------------------------------------------
      LOOP:  cpu time  133.2046: real time  144.9886

 eigenvalue-minimisations  :     0
 total energy-change (2. order) :-0.1119030E-02  (-0.1074061E-02)
 number of electron    1731.0000217 magnetization      -0.0002541
 augmentation part      754.3658757 magnetization       0.0000173

 Free energy of the ion-electron system (eV)
  ---------------------------------------------------
  alpha Z        PSCENC =      6939.29392558
  Ewald energy   TEWEN  =   -126943.35665963
  -Hartree energ DENC   =    -72241.99747580
  -exchange      EXHF   =      4609.39054722
  -V(xc)+E(xc)   XCENC  =      4893.40190963
  PAW double counting   =    153667.82761705  -181071.14485275
  entropy T*S    EENTRO =        -0.02914392
  eigenvalues    EBANDS =    -16858.37136330
  atomic energy  EATOM  =    225872.81875723
  ---------------------------------------------------
  free energy    TOTEN  =     -1132.16674458 eV

  energy without entropy =    -1132.13760066  energy(sigma->0) =    -1132.15217262
  exchange ACFDT corr.  =        -0.02186150  see jH, gK, PRB 81, 115126


--------------------------------------------------------------------------------------------------------




--------------------------------------- Iteration      1(  13)  ---------------------------------------


    POTLOK:  cpu time    0.5315: real time    0.5329
    SETDIJ:  cpu time    0.2001: real time    0.2002
    TRIAL :  cpu time  132.2980: real time  143.9722
    CORREC:  cpu time    0.0010: real time    0.0012
    CHARGE:  cpu time    0.3153: real time    0.3228
    --------------------------------------------
      LOOP:  cpu time  133.3475: real time  145.0385

 eigenvalue-minimisations  :     0
 total energy-change (2. order) :-0.4100388E-03  (-0.7356991E-03)
 number of electron    1731.0000217 magnetization      -0.0002761
 augmentation part      754.4055590 magnetization       0.0000188

 Free energy of the ion-electron system (eV)
  ---------------------------------------------------
  alpha Z        PSCENC =      6939.29392558
  Ewald energy   TEWEN  =   -126943.35665963
  -Hartree energ DENC   =    -72236.97583663
  -exchange      EXHF   =      4609.30416297
  -V(xc)+E(xc)   XCENC  =      4893.25522326
  PAW double counting   =    153662.06533335  -181061.79005217
  entropy T*S    EENTRO =        -0.02914099
  eigenvalues    EBANDS =    -16866.75286466
  atomic energy  EATOM  =    225872.81875723
  ---------------------------------------------------
  free energy    TOTEN  =     -1132.16715462 eV

  energy without entropy =    -1132.13801363  energy(sigma->0) =    -1132.15258413
  exchange ACFDT corr.  =        -0.02186118  see jH, gK, PRB 81, 115126


--------------------------------------------------------------------------------------------------------




--------------------------------------- Iteration      1(  14)  ---------------------------------------


    POTLOK:  cpu time    0.5314: real time    0.5315
    SETDIJ:  cpu time    0.2007: real time    0.2010
    TRIAL :  cpu time  131.7791: real time  143.7512
    CORREC:  cpu time    0.0011: real time    0.0013
    CHARGE:  cpu time    0.3146: real time    0.3224
    --------------------------------------------
      LOOP:  cpu time  132.8287: real time  144.8154

 eigenvalue-minimisations  :     0
 total energy-change (2. order) :-0.3480223E-03  (-0.1950881E-03)
 number of electron    1731.0000217 magnetization      -0.0002983
 augmentation part      754.3981737 magnetization       0.0000155

 Free energy of the ion-electron system (eV)
  ---------------------------------------------------
  alpha Z        PSCENC =      6939.29392558
  Ewald energy   TEWEN  =   -126943.35665963
  -Hartree energ DENC   =    -72241.32504509
  -exchange      EXHF   =      4609.42517467
  -V(xc)+E(xc)   XCENC  =      4893.39518010
  PAW double counting   =    153666.69666517  -181069.51777141
  entropy T*S    EENTRO =        -0.02914001
  eigenvalues    EBANDS =    -16859.56858828
  atomic energy  EATOM  =    225872.81875723
  ---------------------------------------------------
  free energy    TOTEN  =     -1132.16750265 eV

  energy without entropy =    -1132.13836264  energy(sigma->0) =    -1132.15293264
  exchange ACFDT corr.  =        -0.02186186  see jH, gK, PRB 81, 115126


--------------------------------------------------------------------------------------------------------




--------------------------------------- Iteration      1(  15)  ---------------------------------------


    POTLOK:  cpu time    0.5310: real time    0.5311
    SETDIJ:  cpu time    0.2011: real time    0.2012
    TRIAL :  cpu time  132.7918: real time  144.2060
    CORREC:  cpu time    0.0011: real time    0.0013
    CHARGE:  cpu time    0.3038: real time    0.3212
    --------------------------------------------
      LOOP:  cpu time  133.8308: real time  145.2695

 eigenvalue-minimisations  :     0
 total energy-change (2. order) :-0.1176495E-03  (-0.4898671E-04)
 number of electron    1731.0000217 magnetization      -0.0003212
 augmentation part      754.3994333 magnetization       0.0000147

 Free energy of the ion-electron system (eV)
  ---------------------------------------------------
  alpha Z        PSCENC =      6939.29392558
  Ewald energy   TEWEN  =   -126943.35665963
  -Hartree energ DENC   =    -72239.81371640
  -exchange      EXHF   =      4609.39951592
  -V(xc)+E(xc)   XCENC  =      4893.35214153
  PAW double counting   =    153664.36037645  -181066.01377010
  entropy T*S    EENTRO =        -0.02913990
  eigenvalues    EBANDS =    -16862.17905086
  atomic energy  EATOM  =    225872.81875723
  ---------------------------------------------------
  free energy    TOTEN  =     -1132.16762030 eV

  energy without entropy =    -1132.13848040  energy(sigma->0) =    -1132.15305035
  exchange ACFDT corr.  =        -0.02186327  see jH, gK, PRB 81, 115126


--------------------------------------------------------------------------------------------------------




--------------------------------------- Iteration      1(  16)  ---------------------------------------


    POTLOK:  cpu time    0.5326: real time    0.5327
    SETDIJ:  cpu time    0.2016: real time    0.2019
    TRIAL :  cpu time  132.5109: real time  144.0228
    CORREC:  cpu time    0.0011: real time    0.0013
    CHARGE:  cpu time    0.2940: real time    0.3204
[...]
     15.04116     13.64219     11.52063         0.000791      0.214845      0.219758
     12.28898      0.17194      9.58781        -0.307210      0.006860      0.008042
     15.05683      2.11473     11.52592         0.305618     -0.000020     -0.022869
     12.30291     15.54426     13.40146        -0.000912     -0.225916     -0.226532
     12.31255     11.55633      1.93987         0.006544      0.237845      0.221564
     15.01630     13.40101      0.00010        -0.303456     -0.003470     -0.011655
     12.32025     11.72846     13.41426         0.298156     -0.001513     -0.008754
     15.04056      9.82418     15.30951        -0.000594     -0.220085     -0.224290
     15.01781      5.81066      3.85102         0.017855      0.248891      0.220931
     12.29037      7.70484      1.91628        -0.307805      0.006914      0.001328
     15.06287      9.65191      3.83266         0.304368     -0.007861     -0.015085
     12.30708      7.76237      5.72669        -0.004304     -0.220440     -0.215716
 -----------------------------------------------------------------------------------
    total drift:                                0.000904     -0.005334      0.001274


--------------------------------------------------------------------------------------------------------



  FREE ENERGIE OF THE ION-ELECTRON SYSTEM (eV)
  ---------------------------------------------------
  free  energy   TOTEN  =     -1132.16768517 eV

  energy  without entropy=    -1132.13854413  energy(sigma->0) =    -1132.15311465
 


--------------------------------------------------------------------------------------------------------


    POTLOK:  cpu time    0.7037: real time    0.7041


--------------------------------------------------------------------------------------------------------


 writing wavefunctions
     LOOP+:  cpu time 2720.0151: real time 2964.4595
    4ORBIT:  cpu time    0.0000: real time    0.0000
 


 total charge     
 
# of ion       s       p       d       tot
------------------------------------------
    1        0.544   0.563   9.794  10.900
    2        0.541   0.553   9.792  10.885
    3        0.539   0.548   9.793  10.879
    4        0.541   0.553   9.792  10.886
    5        0.541   0.552   9.792  10.884
    6        0.542   0.556   9.792  10.889
    7        0.541   0.553   9.792  10.886
    8        0.541   0.553   9.792  10.886
    9        0.544   0.563   9.794  10.900
   10        0.541   0.553   9.792  10.885
   11        0.540   0.552   9.792  10.884
   12        0.541   0.553   9.792  10.886
   13        0.541   0.552   9.792  10.884
   14        0.540   0.550   9.792  10.882
   15        0.540   0.552   9.792  10.884
   16        0.541   0.555   9.792  10.888
   17        0.541   0.554   9.792  10.887
   18        0.541   0.553   9.792  10.885
   19        0.540   0.552   9.792  10.884
   20        0.542   0.555   9.792  10.889
   21        0.541   0.553   9.792  10.885
   22        0.542   0.555   9.792  10.888
   23        0.543   0.557   9.792  10.892
   24        0.542   0.552   9.792  10.885
   25        0.540   0.550   9.792  10.882
   26        0.541   0.553   9.792  10.885
   27        0.541   0.553   9.792  10.886
   28        0.547   0.568   9.792  10.908
   29        0.540   0.551   9.792  10.883
   30        0.542   0.555   9.792  10.888
   31        0.541   0.553   9.792  10.886
   32        0.541   0.555   9.792  10.888
   33        0.540   0.550   9.792  10.882
   34        0.541   0.553   9.792  10.885
   35        0.539   0.548   9.793  10.879
   36        0.542   0.555   9.792  10.889
   37        0.540   0.551   9.792  10.883
   38        0.540   0.550   9.792  10.882
   39        0.541   0.553   9.792  10.886
   40        0.547   0.568   9.792  10.908
   41        0.541   0.554   9.792  10.887
   42        0.541   0.553   9.792  10.885
   43        0.540   0.552   9.792  10.884
   44        0.542   0.552   9.792  10.885
   45        0.541   0.553   9.792  10.885
   46        0.542   0.556   9.792  10.889
   47        0.540   0.552   9.792  10.884
   48        1.097   1.252  10.078  12.428
   49        1.094   1.248  10.074  12.416
   50        1.094   1.247  10.072  12.413
   51        1.100   1.241  10.075  12.417
   52        1.094   1.247  10.072  12.414
   53        1.094   1.247  10.072  12.413
   54        1.095   1.246  10.072  12.412
   55        1.094   1.247  10.072  12.414
   56        1.093   1.243  10.072  12.409
   57        1.095   1.248  10.073  12.415
   58        1.106   1.237  10.071  12.413
   59        1.100   1.241  10.075  12.417
   60        1.094   1.248  10.073  12.415
   61        1.095   1.246  10.071  12.413
   62        1.106   1.237  10.071  12.413
   63        1.094   1.247  10.072  12.414
   64        1.094   1.248  10.073  12.415
   65        1.095   1.248  10.072  12.415
   66        1.097   1.242  10.071  12.410
   67        1.094   1.249  10.073  12.415
   68        1.096   1.249  10.073  12.418
   69        1.097   1.244  10.072  12.412
   70        1.098   1.249  10.072  12.419
   71        1.095   1.248  10.073  12.415
   72        1.094   1.248  10.073  12.415
   73        1.095   1.246  10.072  12.413
   74        1.094   1.248  10.072  12.415
   75        1.095   1.248  10.072  12.415
   76        1.096   1.249  10.073  12.418
   77        1.095   1.246  10.072  12.413
   78        1.094   1.248  10.072  12.415
   79        1.096   1.247  10.073  12.416
   80        1.093   1.243  10.072  12.409
   81        1.094   1.248  10.074  12.416
   82        1.097   1.242  10.071  12.410
   83        1.095   1.248  10.072  12.415
   84        1.094   1.248  10.073  12.415
   85        1.094   1.247  10.072  12.413
   86        1.098   1.249  10.072  12.419
   87        1.096   1.248  10.073  12.416
   88        1.097   1.252  10.078  12.428
   89        1.095   1.246  10.071  12.413
   90        1.094   1.248  10.072  12.415
   91        1.094   1.249  10.073  12.415
   92        1.094   1.247  10.072  12.414
   93        1.095   1.248  10.073  12.415
   94        1.094   1.248  10.072  12.415
   95        1.094   1.248  10.073  12.415
   96        1.350   0.960  10.027  12.337
   97        1.029   1.490   0.000   2.519
   98        1.022   1.516   0.000   2.537
   99        1.039   1.498   0.000   2.536
  100        1.020   1.520   0.000   2.541
  101        1.021   1.519   0.000   2.540
  102        1.021   1.519   0.000   2.540
  103        1.024   1.513   0.000   2.536
  104        1.021   1.519   0.000   2.540
  105        1.021   1.519   0.000   2.540
  106        1.021   1.519   0.000   2.540
  107        1.021   1.518   0.000   2.539
  108        1.021   1.519   0.000   2.540
  109        1.023   1.518   0.000   2.541
  110        1.021   1.517   0.000   2.539
  111        1.021   1.518   0.000   2.539
  112        1.020   1.517   0.000   2.537
  113        1.021   1.519   0.000   2.540
  114        1.021   1.518   0.000   2.539
  115        1.021   1.519   0.000   2.540
  116        1.022   1.515   0.000   2.538
  117        1.021   1.519   0.000   2.540
  118        1.026   1.514   0.000   2.540
  119        1.021   1.517   0.000   2.539
  120        1.024   1.514   0.000   2.538
  121        1.020   1.518   0.000   2.538
  122        1.027   1.517   0.000   2.544
  123        1.021   1.518   0.000   2.539
  124        1.021   1.520   0.000   2.541
  125        1.020   1.520   0.000   2.540
  126        1.021   1.517   0.000   2.538
  127        1.021   1.518   0.000   2.539
  128        1.020   1.520   0.000   2.540
  129        1.020   1.520   0.000   2.540
  130        1.021   1.518   0.000   2.539
  131        1.021   1.518   0.000   2.539
  132        1.020   1.520   0.000   2.541
  133        1.021   1.519   0.000   2.540
  134        1.021   1.518   0.000   2.539
  135        1.021   1.518   0.000   2.539
  136        1.021   1.519   0.000   2.540
  137        1.020   1.520   0.000   2.540
  138        1.022   1.519   0.000   2.541
  139        1.022   1.519   0.000   2.541
  140        1.020   1.520   0.000   2.540
  141        1.020   1.520   0.000   2.540
  142        1.022   1.518   0.000   2.540
  143        1.022   1.518   0.000   2.540
  144        1.020   1.520   0.000   2.540
  145        1.021   1.520   0.000   2.540
  146        1.022   1.521   0.000   2.543
  147        1.021   1.517   0.000   2.539
  148        1.020   1.520   0.000   2.540
  149        1.021   1.520   0.000   2.540
  150        1.022   1.518   0.000   2.539
  151        1.021   1.518   0.000   2.540
  152        1.021   1.520   0.000   2.541
  153        1.020   1.520   0.000   2.540
  154        1.021   1.517   0.000   2.539
  155        1.022   1.521   0.000   2.543
  156        1.021   1.519   0.000   2.540
  157        1.021   1.520   0.000   2.541
  158        1.021   1.518   0.000   2.539
  159        1.022   1.518   0.000   2.539
  160        1.021   1.520   0.000   2.540
  161        1.020   1.520   0.000   2.540
  162        1.039   1.498   0.000   2.536
  163        1.022   1.516   0.000   2.537
  164        1.029   1.490   0.000   2.519
  165        1.021   1.519   0.000   2.540
  166        1.024   1.513   0.000   2.536
  167        1.021   1.519   0.000   2.540
  168        1.021   1.519   0.000   2.540
  169        1.021   1.519   0.000   2.540
  170        1.021   1.518   0.000   2.539
  171        1.021   1.519   0.000   2.540
  172        1.021   1.519   0.000   2.540
  173        1.020   1.517   0.000   2.537
  174        1.021   1.518   0.000   2.539
  175        1.021   1.517   0.000   2.538
  176        1.023   1.518   0.000   2.541
  177        1.021   1.520   0.000   2.541
  178        1.021   1.518   0.000   2.539
  179        1.027   1.517   0.000   2.544
  180        1.020   1.518   0.000   2.538
  181        1.020   1.520   0.000   2.540
  182        1.021   1.517   0.000   2.539
  183        1.021   1.517   0.000   2.538
  184        1.020   1.520   0.000   2.540
  185        1.022   1.515   0.000   2.538
  186        1.021   1.519   0.000   2.540
  187        1.021   1.518   0.000   2.539
  188        1.020   1.519   0.000   2.540
  189        1.024   1.514   0.000   2.538
  190        1.021   1.517   0.000   2.539
  191        1.026   1.514   0.000   2.540
  192        1.021   1.519   0.000   2.540
--------------------------------------------------
tot        177.472 232.482 953.7351363.690
 


 magnetization (x)
 
# of ion       s       p       d       tot
------------------------------------------
    1        0.000   0.000  -0.000   0.000
    2       -0.000  -0.000  -0.000  -0.000
    3       -0.000  -0.000  -0.000  -0.000
    4        0.000  -0.000  -0.000  -0.000
    5       -0.000   0.000  -0.000  -0.000
    6        0.000  -0.000  -0.000  -0.000
    7       -0.000  -0.000  -0.000  -0.000
    8        0.000   0.000  -0.000   0.000
    9        0.000   0.000  -0.000  -0.000
   10       -0.000  -0.000  -0.000  -0.000
   11       -0.000   0.000  -0.000  -0.000
   12        0.000   0.000  -0.000   0.000
   13       -0.000  -0.000  -0.000  -0.000
   14        0.000   0.000  -0.000  -0.000
   15       -0.000  -0.000  -0.000  -0.000
   16        0.000   0.000  -0.000   0.000
   17        0.000   0.000  -0.000   0.000
   18        0.000   0.000  -0.000   0.000
   19        0.000  -0.000  -0.000  -0.000
   20        0.000  -0.000  -0.000  -0.000
   21        0.000   0.000  -0.000   0.000
   22       -0.000  -0.000  -0.000  -0.000
   23       -0.000  -0.000  -0.000  -0.000
   24        0.000   0.000  -0.000   0.000
   25        0.000   0.000  -0.000   0.000
   26       -0.000   0.000  -0.000  -0.000
   27       -0.000  -0.000  -0.000  -0.000
   28        0.000  -0.000  -0.000  -0.000
   29       -0.000  -0.000  -0.000  -0.000
   30       -0.000  -0.000  -0.000  -0.000
   31        0.000   0.000  -0.000  -0.000
   32       -0.000  -0.000  -0.000  -0.000
   33       -0.000   0.000  -0.000  -0.000
   34       -0.000  -0.000  -0.000  -0.000
   35        0.000   0.000  -0.000  -0.000
   36        0.000   0.000  -0.000  -0.000
   37        0.000   0.000  -0.000   0.000
   38        0.000  -0.000  -0.000  -0.000
   39       -0.000  -0.000  -0.000  -0.000
   40        0.000   0.000  -0.000   0.000
   41       -0.000  -0.000  -0.000  -0.000
   42       -0.000   0.000  -0.000  -0.000
   43       -0.000  -0.000  -0.000  -0.000
   44        0.000   0.000  -0.000  -0.000
   45        0.000   0.000  -0.000   0.000
   46        0.000   0.000  -0.000  -0.000
   47       -0.000  -0.000  -0.000  -0.000
   48       -0.000   0.000  -0.000  -0.000
   49       -0.000   0.000  -0.000  -0.000
   50       -0.000  -0.000  -0.000  -0.000
   51       -0.000  -0.000  -0.000  -0.000
   52       -0.000   0.000  -0.000  -0.000
   53       -0.000   0.000  -0.000   0.000
   54       -0.000   0.000  -0.000  -0.000
   55       -0.000  -0.000  -0.000  -0.000
   56       -0.000  -0.000  -0.000  -0.000
   57       -0.000   0.000  -0.000   0.000
   58       -0.000  -0.000  -0.000  -0.000
   59       -0.000  -0.000  -0.000  -0.000
   60       -0.000   0.000  -0.000  -0.000
   61       -0.000   0.000  -0.000  -0.000
   62       -0.000   0.000  -0.000  -0.000
   63       -0.000  -0.000  -0.000  -0.000
   64       -0.000   0.000  -0.000   0.000
   65       -0.000   0.000  -0.000  -0.000
   66       -0.000   0.000  -0.000  -0.000
   67       -0.000   0.000  -0.000  -0.000
   68       -0.000   0.000  -0.000  -0.000
   69       -0.000   0.000  -0.000  -0.000
   70       -0.000   0.000  -0.000   0.000
   71       -0.000   0.000  -0.000  -0.000
   72       -0.000   0.000  -0.000  -0.000
   73       -0.000   0.000  -0.000  -0.000
   74       -0.000  -0.000  -0.000  -0.000
   75       -0.000   0.000  -0.000  -0.000
   76       -0.000  -0.000  -0.000  -0.000
   77       -0.000   0.000  -0.000  -0.000
   78       -0.000   0.000  -0.000  -0.000
   79       -0.000   0.000  -0.000  -0.000
   80       -0.000  -0.000  -0.000  -0.000
   81       -0.000   0.000  -0.000   0.000
   82       -0.000   0.000  -0.000  -0.000
   83       -0.000   0.000  -0.000  -0.000
   84       -0.000   0.000  -0.000  -0.000
   85       -0.000   0.000  -0.000   0.000
   86       -0.000  -0.000  -0.000  -0.000
   87       -0.000  -0.000  -0.000  -0.000
   88       -0.000  -0.000  -0.000  -0.000
   89       -0.000   0.000  -0.000  -0.000
   90       -0.000   0.000  -0.000  -0.000
   91       -0.000  -0.000  -0.000  -0.000
   92       -0.000   0.000  -0.000  -0.000
   93       -0.000   0.000  -0.000  -0.000
   94       -0.000  -0.000  -0.000  -0.000
   95       -0.000   0.000  -0.000  -0.000
   96       -0.000  -0.000  -0.000  -0.000
   97        0.000   0.000   0.000   0.000
   98        0.000  -0.000   0.000  -0.000
   99       -0.000  -0.000   0.000  -0.000
  100       -0.000  -0.000   0.000  -0.000
  101        0.000   0.000   0.000   0.000
  102        0.000  -0.000   0.000  -0.000
  103        0.000  -0.000   0.000  -0.000
  104        0.000  -0.000   0.000   0.000
  105        0.000   0.000   0.000   0.000
  106       -0.000  -0.000   0.000  -0.000
  107       -0.000  -0.000   0.000  -0.000
  108       -0.000  -0.000   0.000  -0.000
  109        0.000   0.000   0.000   0.000
  110        0.000  -0.000   0.000   0.000
  111       -0.000  -0.000   0.000  -0.000
  112       -0.000  -0.000   0.000  -0.000
  113        0.000   0.000   0.000   0.000
  114       -0.000  -0.000   0.000  -0.000
  115       -0.000  -0.000   0.000  -0.000
  116       -0.000  -0.000   0.000  -0.000
  117        0.000  -0.000   0.000   0.000
  118        0.000  -0.000   0.000   0.000
  119       -0.000  -0.000   0.000  -0.000
  120        0.000   0.000   0.000   0.000
  121       -0.000   0.000   0.000  -0.000
  122       -0.000  -0.000   0.000  -0.000
  123       -0.000  -0.000   0.000  -0.000
  124        0.000  -0.000   0.000  -0.000
  125       -0.000  -0.000   0.000  -0.000
  126        0.000  -0.000   0.000  -0.000
  127       -0.000  -0.000   0.000  -0.000
  128        0.000   0.000   0.000   0.000
  129       -0.000  -0.000   0.000  -0.000
  130       -0.000  -0.000   0.000  -0.000
  131       -0.000  -0.000   0.000  -0.000
  132       -0.000  -0.000   0.000  -0.000
  133       -0.000  -0.000   0.000  -0.000
  134        0.000  -0.000   0.000  -0.000
  135        0.000  -0.000   0.000  -0.000
  136        0.000  -0.000   0.000  -0.000
  137        0.000   0.000   0.000   0.000
  138       -0.000  -0.000   0.000  -0.000
  139       -0.000  -0.000   0.000  -0.000
  140       -0.000  -0.000   0.000  -0.000
  141        0.000   0.000   0.000   0.000
  142       -0.000  -0.000   0.000  -0.000
  143        0.000  -0.000   0.000  -0.000
  144       -0.000  -0.000   0.000  -0.000
  145       -0.000  -0.000   0.000  -0.000
  146       -0.000  -0.000   0.000  -0.000
  147       -0.000  -0.000   0.000  -0.000
  148       -0.000  -0.000   0.000  -0.000
  149       -0.000  -0.000   0.000  -0.000
  150        0.000   0.000   0.000   0.000
  151        0.000  -0.000   0.000  -0.000
  152        0.000   0.000   0.000   0.000
  153        0.000   0.000   0.000   0.000
  154       -0.000  -0.000   0.000  -0.000
  155       -0.000  -0.000   0.000  -0.000
  156       -0.000  -0.000   0.000  -0.000
  157        0.000   0.000   0.000   0.000
  158        0.000   0.000   0.000   0.000
  159       -0.000  -0.000   0.000  -0.000
  160        0.000  -0.000   0.000  -0.000
  161        0.000   0.000   0.000   0.000
  162       -0.000  -0.000   0.000  -0.000
  163       -0.000  -0.000   0.000  -0.000
  164       -0.000  -0.000   0.000  -0.000
  165        0.000   0.000   0.000   0.000
  166       -0.000  -0.000   0.000  -0.000
  167       -0.000  -0.000   0.000  -0.000
  168       -0.000  -0.000   0.000  -0.000
  169       -0.000  -0.000   0.000  -0.000
  170        0.000  -0.000   0.000  -0.000
  171       -0.000  -0.000   0.000  -0.000
  172       -0.000  -0.000   0.000  -0.000
  173        0.000  -0.000   0.000  -0.000
  174        0.000  -0.000   0.000  -0.000
  175        0.000  -0.000   0.000  -0.000
  176        0.000  -0.000   0.000  -0.000
  177        0.000   0.000   0.000   0.000
  178       -0.000  -0.000   0.000  -0.000
  179       -0.000  -0.000   0.000  -0.000
  180        0.000   0.000   0.000   0.000
  181        0.000  -0.000   0.000  -0.000
  182        0.000   0.000   0.000   0.000
  183       -0.000  -0.000   0.000  -0.000
  184        0.000   0.000   0.000   0.000
  185       -0.000   0.000   0.000   0.000
  186       -0.000  -0.000   0.000  -0.000
  187        0.000  -0.000   0.000  -0.000
  188       -0.000  -0.000   0.000  -0.000
  189       -0.000  -0.000   0.000  -0.000
  190        0.000  -0.000   0.000   0.000
  191        0.000  -0.000   0.000  -0.000
  192        0.000   0.000   0.000   0.000
--------------------------------------------------
tot         -0.000  -0.000  -0.000  -0.000
 

 total amount of memory used by VASP MPI-rank0    96914. kBytes
=======================================================================

   base      :      30000. kBytes
   nonl-proj :      13847. kBytes
   fftplans  :       5975. kBytes
   grid      :      17618. kBytes
   one-center:        373. kBytes
   HF        :        194. kBytes
   nonlr-proj:        881. kBytes
   wavefun   :      28026. kBytes
 
  
  
 General timing and accounting informations for this job:
 ========================================================
  
                  Total CPU time used (sec):     2771.719
                            User time (sec):     2712.503
                          System time (sec):       59.216
                         Elapsed time (sec):     3024.862
  
                   Maximum memory used (kb):      351060.
                   Average memory used (kb):           0.
  
                          Minor page faults:       865198
                          Major page faults:           20
                 Voluntary context switches:      2897879
