 running on  128 total cores
 distrk:  each k-point on  128 cores,    1 groups
 distr:  one band on    8 cores,   16 groups
 using from now: INCAR     
 vasp.5.4.4.18Apr17-6-g9f103f2a35 (build Mar 26 2021 15:05:33) gamma-only       
  
 POSCAR found type information on POSCAR  Zn Ge P 
 POSCAR found :  3 types and     192 ions
 scaLAPACK will be used

 ----------------------------------------------------------------------------- 
|                                                                             |
|  ADVICE TO THIS USER RUNNING 'VASP/VAMP'   (HEAR YOUR MASTER'S VOICE ...):  |
|                                                                             |
|      You have a (more or less) 'large supercell' and for larger cells       |
|      it might be more efficient to use real space projection operators      |
|      So try LREAL= Auto  in the INCAR   file.                               |
|      Mind: If you want to do a very accurate calculations keep the          |
|      reciprocal projection scheme          (i.e. LREAL=.FALSE.)             |
|                                                                             |
 ----------------------------------------------------------------------------- 

 LDA part: xc-table for Pade appr. of Perdew
 found WAVECAR, reading the header
 POSCAR, INCAR and KPOINTS ok, starting setup
 FFT: planning ...
 reading WAVECAR
 the WAVECAR file was read successfully
 charge-density read from file: unknown                                 
 magnetization density read from file 1
 initial charge from wavefunction
 entering main loop
       N       E                     dE             d eps       ncg     rms          ort
 gam= 0.000 g(H,U,f)=  0.333E+02 0.386E+01 0.971E-02 ort(H,U,f) = 0.000E+00 0.000E+00 0.000E+00
SDA:   1    -0.112186474485E+04   -0.11219E+04   -0.14884E+02  1136   0.372E+02 0.000E+00
 gam= 0.382 g(H,U,f)=  0.228E+02 0.155E+01 0.411E-02 ort(H,U,f) =-0.149E+02 0.172E+01 0.481E-02
DMP:   2    -0.112658752882E+04   -0.47228E+01   -0.77477E+01  1136   0.244E+02-0.132E+02
 gam= 0.382 g(H,U,f)=  0.206E+01 0.818E+00 0.148E-02 ort(H,U,f) =-0.414E+00 0.150E+01 0.268E-02
DMP:   3    -0.113067240447E+04   -0.40849E+01   -0.13163E+01  1136   0.288E+01 0.108E+01
 gam= 0.382 g(H,U,f)=  0.221E+01 0.562E+00 0.573E-03 ort(H,U,f) =-0.119E+01 0.104E+01 0.119E-02
DMP:   4    -0.113129473979E+04   -0.62234E+00   -0.10848E+01  1136   0.277E+01-0.157E+00
 gam= 0.382 g(H,U,f)=  0.588E+00 0.196E+00 0.193E-03 ort(H,U,f) =-0.686E+00 0.536E+00 0.458E-03
DMP:   5    -0.113180393089E+04   -0.50919E+00   -0.29078E+00  1136   0.784E+00-0.150E+00
 gam= 0.382 g(H,U,f)=  0.244E+00 0.817E-01 0.566E-04 ort(H,U,f) = 0.522E-01 0.240E+00 0.153E-03
DMP:   6    -0.113200704782E+04   -0.20312E+00   -0.17510E+00  1136   0.326E+00 0.292E+00
 gam= 0.382 g(H,U,f)=  0.193E+00 0.449E-01 0.164E-04 ort(H,U,f) =-0.152E+00 0.123E+00 0.467E-04
DMP:   7    -0.113208851412E+04   -0.81466E-01   -0.90672E-01  1136   0.238E+00-0.293E-01
 gam= 0.382 g(H,U,f)=  0.160E-01 0.165E-01 0.386E-05 ort(H,U,f) =-0.152E-01 0.544E-01 0.123E-04
DMP:   8    -0.113214172967E+04   -0.53216E-01   -0.19001E-01  1136   0.325E-01 0.392E-01
 gam= 0.382 g(H,U,f)=  0.247E-01 0.713E-02 0.837E-06 ort(H,U,f) =-0.463E-02 0.228E-01 0.292E-05
DMP:   9    -0.113215482733E+04   -0.13098E-01   -0.15508E-01  1136   0.318E-01 0.182E-01
 gam= 0.382 g(H,U,f)=  0.178E-01 0.345E-02 0.239E-06 ort(H,U,f) =-0.169E-01 0.108E-01 0.821E-06
DMP:  10    -0.113216125858E+04   -0.64312E-02   -0.75795E-02  1136   0.213E-01-0.607E-02
 gam= 0.382 g(H,U,f)=  0.131E-02 0.133E-02 0.388E-07 ort(H,U,f) =-0.176E-02 0.457E-02 0.197E-06
DMP:  11    -0.113216562555E+04   -0.43670E-02   -0.14834E-02  1136   0.264E-02 0.281E-02
 gam= 0.382 g(H,U,f)=  0.134E-02 0.590E-03 0.890E-08 ort(H,U,f) = 0.346E-05 0.197E-02 0.494E-07
DMP:  12    -0.113216674458E+04   -0.11190E-02   -0.10741E-02  1136   0.193E-02 0.197E-02
 gam= 0.382 g(H,U,f)=  0.176E-02 0.268E-03 0.409E-08 ort(H,U,f) =-0.137E-02 0.874E-03 0.182E-07
DMP:  13    -0.113216715462E+04   -0.41004E-03   -0.73570E-03  1136   0.203E-02-0.492E-03
 gam= 0.382 g(H,U,f)=  0.428E-03 0.116E-03 0.216E-08 ort(H,U,f) =-0.514E-03 0.369E-03 0.566E-08
DMP:  14    -0.113216750265E+04   -0.34802E-03   -0.19509E-03  1136   0.543E-03-0.145E-03
 gam= 0.382 g(H,U,f)=  0.193E-04 0.481E-04 0.133E-08 ort(H,U,f) =-0.230E-04 0.167E-03 0.300E-08
DMP:  15    -0.113216762030E+04   -0.11765E-03   -0.48987E-04  1136   0.675E-04 0.144E-03
 gam= 0.382 g(H,U,f)=  0.298E-04 0.218E-04 0.929E-09 ort(H,U,f) =-0.350E-05 0.739E-04 0.187E-08
DMP:  16    -0.113216765658E+04   -0.36282E-04   -0.31389E-04  1136   0.516E-04 0.704E-04
 gam= 0.382 g(H,U,f)=  0.161E-04 0.107E-04 0.743E-09 ort(H,U,f) =-0.145E-04 0.336E-04 0.135E-08
DMP:  17    -0.113216767728E+04   -0.20702E-04   -0.13631E-04  1136   0.268E-04 0.191E-04
 gam= 0.382 g(H,U,f)=  0.120E-05 0.494E-05 0.510E-09 ort(H,U,f) =-0.710E-06 0.158E-04 0.986E-09
DMP:  18    -0.113216768517E+04   -0.78931E-05   -0.47606E-05  1136   0.614E-05 0.151E-04
 final diagonalization
   1 F= -.11321677E+04 E0= -.11321531E+04  d E =-.291410E-01  mag=    -0.0004
 writing wavefunctions
