unknown system                          
           1
    16.404000    0.000000    0.000000
     0.000000   15.331377    0.000000
     0.000000    0.270104   15.328998
   Zn   Ge   P 
  47  49  96
Direct configuration=     1
   0.99829365  0.99949195  0.99735421
   0.16674579  0.62388677  0.37526499
   0.16629739  0.87468543  0.37230546
   0.99999933  0.49955064  0.75044666
   0.00011412  0.50027832  0.49951017
   0.16699549  0.12484036  0.87526904
   0.16676498  0.37524452  0.87520037
   0.99973517  0.24972716  0.50095280
   0.00169897  0.25263556  0.25050961
   0.16637146  0.87517259  0.62428290
   0.16605915  0.12503754  0.62460713
   0.00026198  0.74904726  0.00026882
   0.99988257  0.75048884  0.74971371
   0.16679427  0.37308592  0.12549469
   0.16636656  0.62335901  0.12450466
   0.33411210  0.99889439  0.25019370
   0.33421827  0.99944153  0.99896678
   0.50027851  0.62436257  0.37520965
   0.49999868  0.87507955  0.37491687
   0.33256237  0.50013623  0.75075189
   0.33316627  0.50036811  0.49995617
   0.50019845  0.12465392  0.87496439
   0.49999833  0.37600052  0.87399530
   0.33294129  0.24955056  0.50032964
   0.33339095  0.24989971  0.24955660
   0.49972042  0.87478316  0.62563532
   0.49942435  0.12551826  0.62499891
   0.33641895  0.74585678  0.99842964
   0.33325804  0.75049870  0.74931414
   0.49979931  0.37503342  0.12534176
   0.50057241  0.62499779  0.12447577
   0.66588497  0.99980350  0.25110013
   0.66660603  0.00044072  0.00009703
   0.83362628  0.62571303  0.37482564
   0.83369978  0.87769152  0.37530767
   0.66743659  0.49924364  0.74985787
   0.66673912  0.50068344  0.49949706
   0.83320252  0.12450445  0.87691056
   0.83323283  0.37479791  0.87475199
   0.66357726  0.25156702  0.50413945
   0.66577882  0.25103230  0.25055528
   0.83325093  0.87473223  0.62610682
   0.83362879  0.12549108  0.62663979
   0.66705668  0.74966890  0.00044642
   0.66683159  0.75003879  0.74962809
   0.83300310  0.37472849  0.12515841
   0.83394045  0.62539105  0.12495827
   0.17233938  0.87082939  0.12034066
   0.16877137  0.12345167  0.12353547
   0.99999854  0.75022093  0.49977014
   0.00158671  0.74875707  0.24989976
   0.16647794  0.37524384  0.62511788
   0.16643033  0.62483769  0.62516379
   0.99999900  0.24976588  0.00023296
   0.99983062  0.24958590  0.75095803
   0.16676820  0.12555888  0.37411092
   0.16682407  0.37507409  0.37560950
   0.00136806  0.00024217  0.75091000
   0.99840880  0.00009317  0.50123965
   0.16645984  0.62526823  0.87493746
   0.16765598  0.87429716  0.87515640
   0.99862999  0.49908661  0.24975607
   0.00016709  0.49903967  0.00041259
   0.50012930  0.87500063  0.12476550
   0.49999882  0.12477631  0.12522249
   0.33302575  0.75050995  0.49932052
   0.33394564  0.74875821  0.25013180
   0.49877605  0.37617368  0.62542438
   0.49999811  0.62490600  0.62508640
   0.33434335  0.25005402  0.99909127
   0.33320468  0.24972471  0.75024533
   0.49986839  0.12523273  0.37499674
   0.49958494  0.37488372  0.37538838
   0.33312901  0.00023064  0.74946796
   0.33293227  0.99957965  0.49998111
   0.50122031  0.62456958  0.87381707
   0.50041203  0.87460832  0.87511517
   0.33322931  0.49991158  0.24968311
   0.33328988  0.49913284  0.00016656
   0.83322888  0.87588828  0.12443533
   0.83122433  0.12646192  0.12654489
   0.66697274  0.75067520  0.49948605
   0.66706608  0.75001775  0.25041699
   0.83353889  0.37505732  0.62472790
   0.83356670  0.62483260  0.62515910
   0.66565448  0.25090716  0.99994286
   0.66670572  0.24982986  0.75086118
   0.82765725  0.12965326  0.37916796
   0.83234193  0.37484047  0.37570105
   0.66676567  0.00031449  0.75008610
   0.66605026  0.99986589  0.50123855
   0.83352019  0.62487905  0.87475100
   0.83317112  0.87439104  0.87492014
   0.66686998  0.50052910  0.24976532
   0.66679351  0.49974945  0.00027310
   0.00000321  0.00682713  0.24316473
   0.08230609  0.00120052  0.37768059
   0.24927698  0.12382189  0.24964729
   0.09214116  0.99518726  0.11393384
   0.25090553  0.87285738  0.24737922
   0.24986473  0.62631033  0.50124981
   0.08269526  0.74959241  0.37515872
   0.24998229  0.87543132  0.49844909
   0.08323728  0.74896444  0.62365432
   0.08334845  0.50109276  0.87637817
   0.24854043  0.62539248  0.75014848
   0.08415355  0.50002277  0.62506057
   0.24981667  0.37362409  0.74902015
   0.25134817  0.12577207  0.00017437
   0.08245595  0.24991916  0.87556504
   0.25134292  0.37414050  0.00027661
   0.08369244  0.24638302  0.12409127
   0.08311436  0.25126737  0.62680578
   0.24894575  0.37490606  0.50041861
   0.08459179  0.24998812  0.37590851
   0.24941679  0.12344585  0.49845543
   0.24974988  0.87641189  0.75027183
   0.08175305  0.99996917  0.62484767
   0.25076897  0.12498820  0.74964624
   0.08450139  0.99877401  0.87541670
   0.08429617  0.75043467  0.12551766
   0.25440225  0.87116536  0.99626874
   0.08438602  0.75012555  0.87501282
   0.25008046  0.62291292  0.99870914
   0.25000142  0.37574016  0.25151576
   0.08212288  0.49809528  0.12530895
   0.25084983  0.62452884  0.24980001
   0.08307582  0.49843600  0.37341815
   0.41672936  0.00114088  0.37641589
   0.58214223  0.12522922  0.25020278
   0.41785554  0.99979420  0.12476792
   0.58326870  0.87358053  0.24885514
   0.58353104  0.62668139  0.50107422
   0.41596370  0.74958246  0.37495451
   0.58403382  0.87504166  0.50041510
   0.41646751  0.74891897  0.62331595
   0.41656742  0.50149161  0.87607770
   0.58329284  0.62426759  0.74915655
   0.41670383  0.50083698  0.62572807
   0.58342880  0.37391938  0.74850509
   0.58312498  0.12625003  0.00118357
   0.41645445  0.25028024  0.87429714
   0.58354286  0.37570147  0.99971559
   0.41687261  0.24881399  0.12374773
   0.41621438  0.25149868  0.62629797
   0.58076289  0.37645768  0.50096998
   0.41740186  0.24980032  0.37514061
   0.58275032  0.12384294  0.49923079
   0.58366954  0.87622907  0.75122696
   0.41530635  0.00010454  0.62476455
   0.58445692  0.12500107  0.74984051
   0.41715473  0.99866909  0.87295033
   0.41724631  0.75076636  0.12615432
   0.58259597  0.87485644  0.00019827
   0.41923389  0.74902649  0.87353999
   0.58378242  0.62370093  0.99849651
   0.58284193  0.37704753  0.25132663
   0.41553828  0.50015639  0.12499741
   0.58469329  0.62523180  0.24988981
   0.41632694  0.49877247  0.37376573
   0.74908968  0.00261656  0.37714010
   0.90785769  0.13604933  0.25480969
   0.75072004  0.00034890  0.12617364
   0.91769265  0.87231658  0.24879289
   0.91676148  0.62633646  0.50103291
   0.75001640  0.75154588  0.37456179
   0.91730149  0.87483148  0.50040090
   0.75013221  0.74874603  0.62368540
   0.75017990  0.50097719  0.87637315
   0.91584323  0.62493676  0.74997510
   0.75145853  0.49984670  0.62460303
   0.91665076  0.37361892  0.74890538
   0.91630307  0.12590932  0.00361322
   0.74865323  0.24972194  0.87585506
   0.91754213  0.37443413  0.00007836
   0.74864981  0.24982314  0.12422438
   0.74991530  0.25128794  0.62708447
   0.91561060  0.37498143  0.49987244
   0.74559556  0.25372872  0.37883129
   0.91570084  0.12447583  0.49956306
   0.91692017  0.87658081  0.75155796
   0.74914508  0.00019578  0.62546870
   0.91787526  0.12468823  0.75190273
   0.74999473  0.99848295  0.87425533
   0.75058213  0.75154060  0.12654927
   0.91540477  0.87409045  0.00000664
   0.75105158  0.74958004  0.87509060
   0.91688381  0.62319373  0.99872881
   0.91549700  0.37457851  0.25122474
   0.74922983  0.50035107  0.12501025
   0.91824375  0.62514791  0.25002688
   0.75024881  0.49972438  0.37358547
