  128  128    1    2
  0.1142551E+02  0.1276578E-08  0.1105549E-08  0.1036240E-08  0.5000000E-15
  1.000000000000000E-004
  CAR 
 GaN                                     
    512      1    392
 
  0.0000000E+00  0.0000000E+00  0.0000000E+00  0.1000000E+01
    1      -15.871506    -15.871506   1.000000   1.000000
    2      -15.203628    -15.203628   1.000000   1.000000
    3      -15.196918    -15.196918   1.000000   1.000000
    4      -15.006857    -15.006856   1.000000   1.000000
    5      -14.981304    -14.981305   1.000000   1.000000
    6      -14.875212    -14.875212   1.000000   1.000000
    7      -14.842885    -14.842884   1.000000   1.000000
    8      -14.420240    -14.420238   1.000000   1.000000
    9      -14.419256    -14.419256   1.000000   1.000000
   10      -14.401279    -14.401280   1.000000   1.000000
   11      -14.387991    -14.387992   1.000000   1.000000
   12      -14.282794    -14.282793   1.000000   1.000000
   13      -14.281386    -14.281388   1.000000   1.000000
   14      -14.261567    -14.261566   1.000000   1.000000
   15      -14.247705    -14.247705   1.000000   1.000000
   16      -14.113913    -14.113913   1.000000   1.000000
   17      -14.108468    -14.108467   1.000000   1.000000
   18      -14.099656    -14.099656   1.000000   1.000000
   19      -14.038435    -14.038435   1.000000   1.000000
   20      -13.644450    -13.644448   1.000000   1.000000
   21      -13.641301    -13.641298   1.000000   1.000000
   22      -13.636468    -13.636468   1.000000   1.000000
   23      -13.633282    -13.633281   1.000000   1.000000
   24      -13.624283    -13.624283   1.000000   1.000000
   25      -13.623336    -13.623338   1.000000   1.000000
   26      -13.614253    -13.614255   1.000000   1.000000
   27      -13.605054    -13.605056   1.000000   1.000000
   28      -13.585681    -13.585680   1.000000   1.000000
   29      -13.557143    -13.557145   1.000000   1.000000
   30      -13.490005    -13.490006   1.000000   1.000000
   31      -13.473564    -13.473564   1.000000   1.000000
   32      -13.450912    -13.450912   1.000000   1.000000
   33      -13.331054    -13.331053   1.000000   1.000000
   34      -13.086010    -13.086007   1.000000   1.000000
   35      -13.073554    -13.073551   1.000000   1.000000
   36      -13.073398    -13.073399   1.000000   1.000000
   37      -13.065488    -13.065488   1.000000   1.000000
   38      -13.042976    -13.042976   1.000000   1.000000
   39      -13.041098    -13.041097   1.000000   1.000000
   40      -13.038991    -13.038992   1.000000   1.000000
   41      -13.035043    -13.035042   1.000000   1.000000
   42      -13.029532    -13.029533   1.000000   1.000000
   43      -13.028687    -13.028692   1.000000   1.000000
   44      -13.009425    -13.009426   1.000000   1.000000
   45      -12.950337    -12.950338   1.000000   1.000000
   46      -12.931585    -12.931585   1.000000   1.000000
   47      -12.907818    -12.907817   1.000000   1.000000
   48      -12.844189    -12.844188   1.000000   1.000000
   49      -12.805312    -12.805310   1.000000   1.000000
   50      -12.802287    -12.802289   1.000000   1.000000
   51      -12.798479    -12.798481   1.000000   1.000000
   52      -12.782668    -12.782668   1.000000   1.000000
   53      -12.754416    -12.754419   1.000000   1.000000
   54      -12.627653    -12.627653   1.000000   1.000000
   55      -12.624857    -12.624855   1.000000   1.000000
   56      -12.615772    -12.615774   1.000000   1.000000
   57      -12.610560    -12.610558   1.000000   1.000000
   58      -12.582379    -12.582380   1.000000   1.000000
   59      -12.575839    -12.575839   1.000000   1.000000
   60      -12.571403    -12.571404   1.000000   1.000000
   61      -12.557208    -12.557206   1.000000   1.000000
   62      -12.526774    -12.526776   1.000000   1.000000
   63      -12.478150    -12.478151   1.000000   1.000000
   64      -12.393589    -12.393591   1.000000   1.000000
   65       -5.695152     -5.695151   1.000000   1.000000
   66       -5.281876     -5.281876   1.000000   1.000000
   67       -5.281161     -5.281162   1.000000   1.000000
   68       -5.274789     -5.274790   1.000000   1.000000
   69       -5.270007     -5.270008   1.000000   1.000000
   70       -5.263944     -5.263944   1.000000   1.000000
   71       -5.241454     -5.241454   1.000000   1.000000
   72       -5.104793     -5.104793   1.000000   1.000000
   73       -5.090037     -5.090037   1.000000   1.000000
   74       -5.079569     -5.079569   1.000000   1.000000
   75       -4.994991     -4.994992   1.000000   1.000000
   76       -4.989541     -4.989539   1.000000   1.000000
   77       -4.838027     -4.838028   1.000000   1.000000
   78       -4.832065     -4.832065   1.000000   1.000000
   79       -4.819998     -4.819997   1.000000   1.000000
   80       -4.813287     -4.813287   1.000000   1.000000
   81       -4.804549     -4.804549   1.000000   1.000000
   82       -4.771334     -4.771333   1.000000   1.000000
   83       -4.577741     -4.577742   1.000000   1.000000
   84       -4.573204     -4.573204   1.000000   1.000000
   85       -4.560880     -4.560880   1.000000   1.000000
   86       -4.520074     -4.520074   1.000000   1.000000
   87       -4.374974     -4.374974   1.000000   1.000000
   88       -4.374089     -4.374089   1.000000   1.000000
   89       -4.356394     -4.356394   1.000000   1.000000
   90       -4.346361     -4.346361   1.000000   1.000000
   91       -4.345821     -4.345820   1.000000   1.000000
   92       -4.335612     -4.335613   1.000000   1.000000
   93       -4.181742     -4.181742   1.000000   1.000000
   94       -4.167778     -4.167777   1.000000   1.000000
   95       -3.918932     -3.918932   1.000000   1.000000
   96       -3.913368     -3.913369   1.000000   1.000000
   97       -3.905244     -3.905243   1.000000   1.000000
   98       -3.901622     -3.901623   1.000000   1.000000
   99       -3.900929     -3.900930   1.000000   1.000000
  100       -3.900182     -3.900182   1.000000   1.000000
  101       -3.890472     -3.890472   1.000000   1.000000
  102       -3.881247     -3.881247   1.000000   1.000000
  103       -3.813561     -3.813561   1.000000   1.000000
  104       -3.803130     -3.803131   1.000000   1.000000
  105       -3.792395     -3.792395   1.000000   1.000000
  106       -3.706740     -3.706741   1.000000   1.000000
  107       -3.658841     -3.658840   1.000000   1.000000
  108       -3.635572     -3.635572   1.000000   1.000000
  109       -3.629159     -3.629160   1.000000   1.000000
  110       -3.224043     -3.224043   1.000000   1.000000
  111       -3.217839     -3.217839   1.000000   1.000000
  112       -3.141214     -3.141214   1.000000   1.000000
  113       -3.131875     -3.131875   1.000000   1.000000
  114       -3.123971     -3.123971   1.000000   1.000000
  115       -3.121325     -3.121325   1.000000   1.000000
  116       -3.119083     -3.119082   1.000000   1.000000
  117       -3.115197     -3.115196   1.000000   1.000000
  118       -3.099350     -3.099351   1.000000   1.000000
  119       -3.097158     -3.097158   1.000000   1.000000
  120       -2.762789     -2.762787   1.000000   1.000000
  121       -2.760265     -2.760266   1.000000   1.000000
  122       -2.756289     -2.756288   1.000000   1.000000
  123       -2.746285     -2.746284   1.000000   1.000000
  124       -2.623781     -2.623781   1.000000   1.000000
  125       -2.609228     -2.609227   1.000000   1.000000
  126       -2.601127     -2.601125   1.000000   1.000000
  127       -2.501120     -2.501120   1.000000   1.000000
  128       -2.482770     -2.482769   1.000000   1.000000
  129       -2.452443     -2.452442   1.000000   1.000000
  130       -2.419605     -2.419607   1.000000   1.000000
  131       -2.409784     -2.409784   1.000000   1.000000
  132       -2.403304     -2.403304   1.000000   1.000000
  133       -2.400847     -2.400848   1.000000   1.000000
  134       -2.393429     -2.393429   1.000000   1.000000
  135       -2.336310     -2.336311   1.000000   1.000000
  136       -2.332812     -2.332813   1.000000   1.000000
  137       -2.302944     -2.302943   1.000000   1.000000
  138       -2.301919     -2.301918   1.000000   1.000000
  139       -2.292659     -2.292659   1.000000   1.000000
  140       -2.284738     -2.284737   1.000000   1.000000
  141       -2.268930     -2.268932   1.000000   1.000000
  142       -2.261554     -2.261555   1.000000   1.000000
  143       -1.772416     -1.772418   1.000000   1.000000
  144       -1.768680     -1.768681   1.000000   1.000000
  145       -1.762029     -1.762029   1.000000   1.000000
  146       -1.752319     -1.752316   1.000000   1.000000
  147       -1.748098     -1.748096   1.000000   1.000000
  148       -1.735393     -1.735394   1.000000   1.000000
  149       -1.601051     -1.601052   1.000000   1.000000
  150       -1.600314     -1.600314   1.000000   1.000000
  151       -1.211313     -1.211312   1.000000   1.000000
  152       -1.195910     -1.195912   1.000000   1.000000
  153       -1.063063     -1.063062   1.000000   1.000000
  154       -1.054939     -1.054939   1.000000   1.000000
  155       -1.044089     -1.044093   1.000000   1.000000
  156       -1.031719     -1.031722   1.000000   1.000000
  157       -1.025934     -1.025934   1.000000   1.000000
  158       -1.025884     -1.025884   1.000000   1.000000
  159       -1.015357     -1.015357   1.000000   1.000000
  160       -1.006722     -1.006721   1.000000   1.000000
  161       -0.991046     -0.991046   1.000000   1.000000
  162       -0.893844     -0.893844   1.000000   1.000000
  163       -0.891529     -0.891528   1.000000   1.000000
  164       -0.781040     -0.781039   1.000000   1.000000
  165       -0.776167     -0.776167   1.000000   1.000000
  166       -0.590275     -0.590273   1.000000   1.000000
  167       -0.589067     -0.589068   1.000000   1.000000
  168       -0.585301     -0.585300   1.000000   1.000000
  169       -0.578764     -0.578765   1.000000   1.000000
  170       -0.576360     -0.576360   1.000000   1.000000
  171       -0.567745     -0.567745   1.000000   1.000000
  172       -0.529896     -0.529897   1.000000   1.000000
  173       -0.529204     -0.529203   1.000000   1.000000
  174       -0.433736     -0.433735   1.000000   1.000000
  175       -0.428156     -0.428157   1.000000   1.000000
  176       -0.414488     -0.414486   1.000000   1.000000
  177       -0.373043     -0.373041   1.000000   1.000000
  178       -0.364286     -0.364288   1.000000   1.000000
  179       -0.315626     -0.315629   1.000000   1.000000
  180       -0.308603     -0.308600   1.000000   1.000000
  181       -0.288978     -0.288979   1.000000   1.000000
  182       -0.278231     -0.278230   1.000000   1.000000
  183       -0.263047     -0.263046   1.000000   1.000000
  184       -0.243156     -0.243158   1.000000   1.000000
  185       -0.204405     -0.204406   1.000000   1.000000
  186       -0.197662     -0.197664   1.000000   1.000000
  187       -0.196288     -0.196292   1.000000   1.000000
  188       -0.182960     -0.182956   1.000000   1.000000
  189       -0.164355     -0.164356   1.000000   1.000000
  190       -0.150867     -0.150869   1.000000   1.000000
  191       -0.143447     -0.143446   1.000000   1.000000
  192       -0.127620     -0.127615   1.000000   1.000000
  193       -0.120233     -0.120235   1.000000   1.000000
  194       -0.109356     -0.109357   1.000000   1.000000
  195       -0.105696     -0.105696   1.000000   1.000000
  196       -0.104069     -0.104069   1.000000   1.000000
  197       -0.101182     -0.101179   1.000000   1.000000
  198       -0.095082     -0.095082   1.000000   1.000000
  199       -0.094134     -0.094129   1.000000   1.000000
  200       -0.076646     -0.076647   1.000000   1.000000
  201       -0.074700     -0.074701   1.000000   1.000000
  202       -0.052797     -0.052794   1.000000   1.000000
  203       -0.004317     -0.004318   1.000000   1.000000
  204       -0.002082     -0.002084   1.000000   1.000000
  205        0.000194      0.000193   1.000000   1.000000
  206        0.008798      0.008802   1.000000   1.000000
  207        0.013351      0.013351   1.000000   1.000000
  208        0.024096      0.024092   1.000000   1.000000
  209        0.033882      0.033883   1.000000   1.000000
  210        0.035376      0.035379   1.000000   1.000000
  211        0.088197      0.088192   1.000000   1.000000
  212        0.088546      0.088546   1.000000   1.000000
  213        0.184652      0.184650   1.000000   1.000000
  214        0.197657      0.197661   1.000000   1.000000
  215        0.203428      0.203429   1.000000   1.000000
  216        0.246959      0.246960   1.000000   1.000000
  217        0.342248      0.342252   1.000000   1.000000
  218        0.345409      0.345409   1.000000   1.000000
  219        0.348719      0.348718   1.000000   1.000000
  220        0.366935      0.366936   1.000000   1.000000
  221        0.481709      0.481707   1.000000   1.000000
  222        0.487241      0.487239   1.000000   1.000000
  223        0.492400      0.492401   1.000000   1.000000
  224        0.501814      0.501813   1.000000   1.000000
  225        0.507476      0.507474   1.000000   1.000000
  226        0.507633      0.507629   1.000000   1.000000
  227        0.512335      0.512334   1.000000   1.000000
  228        0.575158      0.575156   1.000000   1.000000
  229        0.663510      0.663513   1.000000   1.000000
  230        0.668532      0.668532   1.000000   1.000000
  231        0.675329      0.675327   1.000000   1.000000
  232        0.677213      0.677212   1.000000   1.000000
  233        0.690744      0.690746   1.000000   1.000000
  234        0.692971      0.692973   1.000000   1.000000
  235        0.698138      0.698137   1.000000   1.000000
  236        0.709832      0.709829   1.000000   1.000000
  237        0.784964      0.784963   1.000000   1.000000
  238        0.798234      0.798230   1.000000   1.000000
  239        0.852703      0.852704   1.000000   1.000000
  240        0.865845      0.865841   1.000000   1.000000
  241        0.874250      0.874250   1.000000   1.000000
  242        1.191622      1.191623   1.000000   1.000000
  243        1.208261      1.208263   1.000000   1.000000
  244        1.311811      1.311809   1.000000   1.000000
  245        1.312011      1.312011   1.000000   1.000000
  246        1.335079      1.335077   1.000000   1.000000
  247        1.336315      1.336311   1.000000   1.000000
  248        1.354398      1.354398   1.000000   1.000000
  249        1.355208      1.355205   1.000000   1.000000
  250        1.379647      1.379648   1.000000   1.000000
  251        1.408830      1.408834   1.000000   1.000000
  252        1.413823      1.413822   1.000000   1.000000
  253        1.465784      1.465782   1.000000   1.000000
  254        1.931087      1.931087   1.000000   1.000000
  255        1.936403      1.936403   1.000000   1.000000
  256        1.950838      1.950836   1.000000   1.000000
  257        5.543396      5.543396   0.000000   0.000000
  258        7.782549      7.782548   0.000000   0.000000
  259        7.803104      7.803103   0.000000   0.000000
  260        7.967877      7.967876   0.000000   0.000000
  261        7.997443      7.997443   0.000000   0.000000
  262        7.999600      7.999600   0.000000   0.000000
  263        8.004972      8.004972   0.000000   0.000000
  264        8.010658      8.010657   0.000000   0.000000
  265        8.015092      8.015093   0.000000   0.000000
  266        8.027870      8.027869   0.000000   0.000000
  267        8.029623      8.029625   0.000000   0.000000
  268        8.034455      8.034454   0.000000   0.000000
  269        8.049574      8.049574   0.000000   0.000000
  270        8.052591      8.052592   0.000000   0.000000
  271        8.635152      8.635153   0.000000   0.000000
  272        8.660293      8.660294   0.000000   0.000000
  273        8.663102      8.663102   0.000000   0.000000
  274        8.798412      8.798413   0.000000   0.000000
  275        8.810320      8.810319   0.000000   0.000000
  276        8.955788      8.955789   0.000000   0.000000
  277        8.991978      8.991979   0.000000   0.000000
  278        8.992756      8.992756   0.000000   0.000000
  279        9.011887      9.011888   0.000000   0.000000
  280        9.084789      9.084788   0.000000   0.000000
  281        9.119672      9.119672   0.000000   0.000000
  282        9.124985      9.124984   0.000000   0.000000
  283        9.141161      9.141161   0.000000   0.000000
  284        9.159021      9.159021   0.000000   0.000000
  285        9.167951      9.167951   0.000000   0.000000
  286        9.168716      9.168715   0.000000   0.000000
  287        9.175024      9.175026   0.000000   0.000000
  288        9.175600      9.175600   0.000000   0.000000
  289        9.182681      9.182681   0.000000   0.000000
  290        9.187675      9.187674   0.000000   0.000000
  291        9.192651      9.192651   0.000000   0.000000
  292        9.283543      9.283543   0.000000   0.000000
  293        9.312461      9.312462   0.000000   0.000000
  294        9.318929      9.318929   0.000000   0.000000
  295        9.329336      9.329339   0.000000   0.000000
  296        9.342141      9.342140   0.000000   0.000000
  297        9.346505      9.346505   0.000000   0.000000
  298        9.350488      9.350488   0.000000   0.000000
  299        9.360183      9.360183   0.000000   0.000000
  300        9.361893      9.361893   0.000000   0.000000
  301        9.588844      9.588844   0.000000   0.000000
  302        9.601404      9.601403   0.000000   0.000000
  303        9.605780      9.605779   0.000000   0.000000
  304        9.619582      9.619581   0.000000   0.000000
  305        9.756147      9.756147   0.000000   0.000000
  306        9.761367      9.761367   0.000000   0.000000
  307        9.786926      9.786923   0.000000   0.000000
  308        9.802662      9.802661   0.000000   0.000000
  309        9.809226      9.809227   0.000000   0.000000
  310        9.814408      9.814408   0.000000   0.000000
  311        9.825127      9.825126   0.000000   0.000000
  312        9.825237      9.825236   0.000000   0.000000
  313        9.851120      9.851121   0.000000   0.000000
  314       10.130883     10.130884   0.000000   0.000000
  315       10.147694     10.147694   0.000000   0.000000
  316       10.386436     10.386440   0.000000   0.000000
  317       10.400392     10.400393   0.000000   0.000000
  318       10.404735     10.404736   0.000000   0.000000
  319       10.414493     10.414493   0.000000   0.000000
  320       10.490211     10.490211   0.000000   0.000000
  321       10.510391     10.510391   0.000000   0.000000
  322       10.520240     10.520241   0.000000   0.000000
  323       10.526600     10.526600   0.000000   0.000000
  324       10.730900     10.730898   0.000000   0.000000
  325       10.737413     10.737412   0.000000   0.000000
  326       11.289321     11.289333   0.000000   0.000000
  327       11.316358     11.316359   0.000000   0.000000
  328       11.431242     11.431224   0.000000   0.000000
  329       11.439570     11.439571   0.000000   0.000000
  330       11.472475     11.472475   0.000000   0.000000
  331       11.474477     11.474477   0.000000   0.000000
  332       11.488698     11.488696   0.000000   0.000000
  333       11.509256     11.509265   0.000000   0.000000
  334       11.549568     11.549598   0.000000   0.000000
  335       11.570957     11.570953   0.000000   0.000000
  336       11.577501     11.577507   0.000000   0.000000
  337       11.590857     11.590855   0.000000   0.000000
  338       11.628069     11.628079   0.000000   0.000000
  339       11.638482     11.638471   0.000000   0.000000
  340       11.648951     11.648950   0.000000   0.000000
  341       11.655221     11.655217   0.000000   0.000000
  342       11.659328     11.659332   0.000000   0.000000
  343       11.667212     11.667212   0.000000   0.000000
  344       11.687797     11.687802   0.000000   0.000000
  345       11.691700     11.691698   0.000000   0.000000
  346       11.701465     11.701466   0.000000   0.000000
  347       11.717314     11.717282   0.000000   0.000000
  348       11.718264     11.718291   0.000000   0.000000
  349       11.731346     11.731346   0.000000   0.000000
  350       11.737364     11.737365   0.000000   0.000000
  351       11.752717     11.752717   0.000000   0.000000
  352       11.837247     11.837211   0.000000   0.000000
  353       11.855676     11.855694   0.000000   0.000000
  354       11.859709     11.858997   0.000000   0.000000
  355       11.875753     11.875751   0.000000   0.000000
  356       11.884321     11.884305   0.000000   0.000000
  357       11.894477     11.894359   0.000000   0.000000
  358       11.894712     11.894690   0.000000   0.000000
  359       11.903884     11.903868   0.000000   0.000000
  360       11.912782     11.912782   0.000000   0.000000
  361       11.920084     11.920086   0.000000   0.000000
  362       11.925867     11.925812   0.000000   0.000000
  363       11.931158     11.931163   0.000000   0.000000
  364       11.951479     11.951537   0.000000   0.000000
  365       11.965016     11.964993   0.000000   0.000000
  366       11.988320     11.988314   0.000000   0.000000
  367       11.991045     11.991050   0.000000   0.000000
  368       12.096251     12.096245   0.000000   0.000000
  369       12.105226     12.105145   0.000000   0.000000
  370       12.176485     12.176423   0.000000   0.000000
  371       12.201157     12.201244   0.000000   0.000000
  372       12.206403     12.206659   0.000000   0.000000
  373       12.220626     12.220574   0.000000   0.000000
  374       12.446136     12.447089   0.000000   0.000000
  375       12.497231     12.497873   0.000000   0.000000
  376       12.504291     12.503390   0.000000   0.000000
  377       12.508336     12.505317   0.000000   0.000000
  378       12.509989     12.510509   0.000000   0.000000
  379       12.521550     12.520502   0.000000   0.000000
  380       12.960885     12.959624   0.000000   0.000000
  381       12.982322     12.982410   0.000000   0.000000
  382       12.986929     12.997119   0.000000   0.000000
  383       13.148961     13.140364   0.000000   0.000000
  384       13.159919     13.172813   0.000000   0.000000
  385       13.185502     13.195014   0.000000   0.000000
  386       13.266003     13.250794   0.000000   0.000000
  387       13.286531     13.281998   0.000000   0.000000
  388       13.313565     13.350874   0.000000   0.000000
  389       13.424769     13.423551   0.000000   0.000000
  390       13.570230     13.559580   0.000000   0.000000
  391       13.575512     13.580336   0.000000   0.000000
  392       13.622217     13.630495   0.000000   0.000000
