       N       E                     dE             d eps       ncg     rms          ort
SDA:   1    -0.980188587640E+03   -0.98019E+03   -0.39615E+01   392   0.198E+02 0.000E+00
DMP:   2    -0.983581618279E+03   -0.33930E+01   -0.36173E+01   392   0.107E+02 0.141E+02
DMP:   3    -0.986376011298E+03   -0.27944E+01   -0.18452E+01   392   0.409E+01 0.988E+01
DMP:   4    -0.987697396951E+03   -0.13214E+01   -0.74044E+00   392   0.163E+01 0.400E+01
DMP:   5    -0.988203092072E+03   -0.50570E+00   -0.29301E+00   392   0.762E+00 0.135E+01
DMP:   6    -0.988389288374E+03   -0.18620E+00   -0.10490E+00   392   0.319E+00 0.396E+00
DMP:   7    -0.988443983253E+03   -0.54695E-01   -0.33246E-01   392   0.155E+00 0.224E-01
DMP:   8    -0.988458324654E+03   -0.14341E-01   -0.22646E-01   392   0.125E+00-0.225E-01
DMP:   9    -0.988473816189E+03   -0.15492E-01   -0.22578E-01   392   0.911E-01 0.420E-01
DMP:  10    -0.988491151969E+03   -0.17336E-01   -0.15800E-01   392   0.475E-01 0.606E-01
DMP:  11    -0.988503060970E+03   -0.11909E-01   -0.85484E-02   392   0.219E-01 0.401E-01
DMP:  12    -0.988509474012E+03   -0.64130E-02   -0.44517E-02   392   0.111E-01 0.214E-01
DMP:  13    -0.988512845504E+03   -0.33715E-02   -0.23196E-02   392   0.565E-02 0.115E-01
DMP:  14    -0.988514577653E+03   -0.17321E-02   -0.11274E-02   392   0.266E-02 0.572E-02
DMP:  15    -0.988515395188E+03   -0.81753E-03   -0.53820E-03   392   0.137E-02 0.254E-02
DMP:  16    -0.988515792414E+03   -0.39723E-03   -0.31274E-03   392   0.897E-03 0.128E-02
DMP:  17    -0.988516039253E+03   -0.24684E-03   -0.21100E-03   392   0.584E-03 0.906E-03
DMP:  18    -0.988516209893E+03   -0.17064E-03   -0.13314E-03   392   0.327E-03 0.652E-03
DMP:  19    -0.988516317604E+03   -0.10771E-03   -0.78181E-04   392   0.177E-03 0.412E-03
DMP:  20    -0.988516381560E+03   -0.63956E-04   -0.46183E-04   392   0.101E-03 0.250E-03
DMP:  21    -0.988516419896E+03   -0.38336E-04   -0.27584E-04   392   0.583E-04 0.153E-03
DMP:  22    -0.988516442967E+03   -0.23071E-04   -0.16443E-04   392   0.337E-04 0.934E-04
DMP:  23    -0.988516456813E+03   -0.13846E-04   -0.99208E-05   392   0.201E-04 0.567E-04
DMP:  24    -0.988516465246E+03   -0.84333E-05   -0.61066E-05   392   0.123E-04 0.351E-04
   1 F= -.98851647E+03 E0= -.98851647E+03  d E =-.831844E-17  mag=    -0.0000
 imaginary and real dielectric function
