 vasp.5.4.4.18Apr17-6-g9f103f2a35 (build Nov 17 2021 14:08:04) gamma-only       
  
 executed on             LinuxIFC date 2022.03.05  17:57:06
 running on   96 total cores
 distrk:  each k-point on   96 cores,    1 groups
 distr:  one band on NCORES_PER_BAND=  12 cores,    8 groups


--------------------------------------------------------------------------------------------------------


 INCAR:
 POTCAR:    PAW_PBE Ga 08Apr2002                  
 POTCAR:    PAW_PBE N 08Apr2002                   
 POTCAR:    PAW_PBE Ga 08Apr2002                  
   VRHFIN =Ga: s2p1                                                             
   LEXCH  = PE                                                                  
   EATOM  =    58.8688 eV,    4.3267 Ry                                         
                                                                                
   TITEL  = PAW_PBE Ga 08Apr2002                                                
   LULTRA =        F    use ultrasoft PP ?                                      
   IUNSCR =        1    unscreen: 0-lin 1-nonlin 2-no                           
   RPACOR =    2.170    partial core radius                                     
   POMASS =   69.723; ZVAL   =    3.000    mass and valenz                      
   RCORE  =    2.600    outmost cutoff radius                                   
   RWIGS  =    2.650; RWIGS  =    1.402    wigner-seitz radius (au A)           
   ENMAX  =  134.678; ENMIN  =  101.009 eV                                      
   ICORE  =        3    local potential                                         
   LCOR   =        T    correct aug charges                                     
   LPAW   =        T    paw PP                                                  
   EAUG   =  320.264                                                            
   DEXC   =    0.000                                                            
   RMAX   =    2.658    core radius for proj-oper                               
   RAUG   =    1.300    factor for augmentation sphere                          
   RDEP   =    2.684    radius for radial grids                                 
   RDEPT  =    2.308    core radius for aug-charge                              
                                                                                
   Atomic configuration                                                         
   10 entries                                                                   
     n  l   j            E        occ.                                          
     1  0  0.50    -10228.7830   2.0000                                         
     2  0  0.50     -1262.1604   2.0000                                         
     2  1  1.50     -1098.6333   6.0000                                         
     3  0  0.50      -148.1110   2.0000                                         
     3  1  1.50       -98.8436   6.0000                                         
     3  2  2.50       -19.1549  10.0000                                         
     4  0  0.50        -8.9483   2.0000                                         
     4  1  0.50        -2.5791   1.0000                                         
     4  2  1.50         5.4423   0.0000                                         
     4  3  2.50        -2.7416   0.0000                                         
   Description                                                                  
     l       E           TYP  RCUT    TYP  RCUT                                 
     0     -8.9483097     23  2.600                                             
     0     -5.8232215     23  2.600                                             
     1     -2.5790793     23  2.600                                             
     1      5.2230115     23  2.600                                             
     2      1.3605826     23  2.600                                             
     3     -1.3605826      7  2.600                                             
  local pseudopotential read in
  partial core-charges read in
  partial kinetic energy density read in
  atomic valenz-charges read in
  non local Contribution for L=           0  read in
    real space projection operators read in
  non local Contribution for L=           0  read in
    real space projection operators read in
  non local Contribution for L=           1  read in
    real space projection operators read in
  non local Contribution for L=           1  read in
    real space projection operators read in
  non local Contribution for L=           2  read in
    real space projection operators read in
    PAW grid and wavefunctions read in
 
   number of l-projection  operators is LMAX  =           5
   number of lm-projection operators is LMMAX =          13
 
 POTCAR:    PAW_PBE N 08Apr2002                   
   VRHFIN =N: s2p3                                                              
   LEXCH  = PE                                                                  
   EATOM  =   264.5486 eV,   19.4438 Ry                                         
                                                                                
   TITEL  = PAW_PBE N 08Apr2002                                                 
   LULTRA =        F    use ultrasoft PP ?                                      
   IUNSCR =        1    unscreen: 0-lin 1-nonlin 2-no                           
   RPACOR =    1.200    partial core radius                                     
   POMASS =   14.001; ZVAL   =    5.000    mass and valenz                      
   RCORE  =    1.500    outmost cutoff radius                                   
   RWIGS  =    1.400; RWIGS  =    0.741    wigner-seitz radius (au A)           
   ENMAX  =  400.000; ENMIN  =  300.000 eV                                      
   ICORE  =        2    local potential                                         
   LCOR   =        T    correct aug charges                                     
   LPAW   =        T    paw PP                                                  
   EAUG   =  627.112                                                            
   DEXC   =    0.000                                                            
   RMAX   =    1.529    core radius for proj-oper                               
   RAUG   =    1.300    factor for augmentation sphere                          
   RDEP   =    1.514    radius for radial grids                                 
   RDEPT  =    1.338    core radius for aug-charge                              
                                                                                
   Atomic configuration                                                         
    4 entries                                                                   
     n  l   j            E        occ.                                          
     1  0  0.50      -384.7179   2.0000                                         
     2  0  0.50       -18.5828   2.0000                                         
     2  1  0.50        -7.0898   3.0000                                         
     3  2  1.50        -6.8029   0.0000                                         
   Description                                                                  
     l       E           TYP  RCUT    TYP  RCUT                                 
     0    -18.5828119     23  1.200                                             
     0    -13.5018863     23  1.200                                             
     1     -7.0897853     23  1.500                                             
     1      9.5240782     23  1.500                                             
     2     -6.8029130      7  1.500                                             
  local pseudopotential read in
  partial core-charges read in
  partial kinetic energy density read in
  atomic valenz-charges read in
  non local Contribution for L=           0  read in
    real space projection operators read in
  non local Contribution for L=           0  read in
    real space projection operators read in
  non local Contribution for L=           1  read in
    real space projection operators read in
  non local Contribution for L=           1  read in
    real space projection operators read in
    PAW grid and wavefunctions read in
 
   number of l-projection  operators is LMAX  =           4
   number of lm-projection operators is LMMAX =           8
 

 ----------------------------------------------------------------------------- 
|                                                                             |
|  ADVICE TO THIS USER RUNNING 'VASP/VAMP'   (HEAR YOUR MASTER'S VOICE ...):  |
|                                                                             |
|      You have a (more or less) 'large supercell' and for larger cells       |
|      it might be more efficient to use real space projection opertators     |
|      So try LREAL= Auto  in the INCAR   file.                               |
|      Mind:          For very  accurate calculation you might also keep the  |
|      reciprocal projection scheme          (i.e. LREAL=.FALSE.)             |
|                                                                             |
 ----------------------------------------------------------------------------- 

  PAW_PBE Ga 08Apr2002                  :
 energy of atom  1       EATOM=  -58.8688
 kinetic energy error for atom=    0.0001 (will be added to EATOM!!)
  PAW_PBE N 08Apr2002                   :
 energy of atom  2       EATOM= -264.5486
 kinetic energy error for atom=    0.0736 (will be added to EATOM!!)
 
 
 POSCAR: C_N1                                    
  positions in direct lattice
  velocities in cartesian coordinates
 exchange correlation table for  LEXCH =        8
   RHO(1)=    0.500       N(1)  =     2000
   RHO(2)=  100.500       N(2)  =     4000
 


--------------------------------------------------------------------------------------------------------


 ion  position               nearest neighbor table
   1  0.000  0.168  0.255-  67 1.96 113 1.96  65 1.96 128 1.96   8 3.16  54 3.16   6 3.16  49 3.18
                            17 3.18  51 3.18   3 3.18  59 3.20  11 3.20   4 3.24  50 3.27   2 3.27
   2  0.125  0.078  0.997-  74 1.93  69 1.94  80 1.97 128 2.03  15 3.13  12 3.15  28 3.16   5 3.16
                            21 3.17  11 3.18  18 3.19  50 3.19  17 3.23  20 3.24   1 3.27   4 3.28
   3  0.124  0.417  0.251-  67 1.95  73 1.95  83 1.95  66 1.96   4 3.17  51 3.17  20 3.18  14 3.18
                            24 3.18   1 3.18   9 3.19   8 3.19  10 3.19  17 3.19  25 3.19  19 3.20
   4  0.000  0.337  1.000- 114 1.96  66 1.96 128 1.96  71 1.97  55 3.17   7 3.17  58 3.17  10 3.17
                            51 3.17   3 3.17   5 3.18  20 3.18  52 3.18   1 3.24  50 3.28   2 3.28
   5  0.000  0.168  0.752-  71 1.95 117 1.95  69 1.95  68 1.96  50 3.16   2 3.16   8 3.17   4 3.18
                            54 3.18   6 3.18  55 3.19   7 3.19  21 3.20  53 3.20  63 3.22  15 3.22
   6  0.125  0.083  0.502-  65 1.95  78 1.95  84 1.95  68 1.95  15 3.16   1 3.16  21 3.16   5 3.18
                            17 3.18  11 3.19  22 3.19  32 3.19  54 3.19  16 3.19  24 3.19   8 3.20
   7  0.125  0.417  0.750-  71 1.94  77 1.95  87 1.95  70 1.95   8 3.16   4 3.17  20 3.17  14 3.17
                            24 3.18  29 3.18  13 3.18  10 3.18  23 3.19   5 3.19  21 3.20  55 3.20
   8  0.000  0.334  0.503-  67 1.94 118 1.95  70 1.95  68 1.95  55 3.16   7 3.16   1 3.16   5 3.17
                            62 3.18  14 3.18  51 3.19   3 3.19  56 3.19  24 3.19  54 3.20   6 3.20
   9  0.000  0.667  0.251-  75 1.95 121 1.95  73 1.95  72 1.96  12 3.17  16 3.17  62 3.18  14 3.18
                            58 3.18  10 3.18  51 3.19   3 3.19  25 3.19  57 3.19  59 3.20  11 3.20
  10  0.125  0.585  0.001-  66 1.93  72 1.95  88 1.95  77 1.96  28 3.17  12 3.17  25 3.17   4 3.17
                            29 3.18   9 3.18  13 3.18   7 3.18  26 3.19   3 3.19  20 3.19  58 3.20
  11  0.125  0.917  0.251-  65 1.94  75 1.95  91 1.95  74 1.96  16 3.17  32 3.17  17 3.18   2 3.18
                            12 3.19   6 3.19  27 3.19  59 3.19   9 3.20  28 3.20   1 3.20  25 3.20
  12  0.000  0.832  0.001-  72 1.94 122 1.95  74 1.95  79 1.96  50 3.15   2 3.15   9 3.17  58 3.17
                            10 3.17  13 3.18  59 3.19  11 3.19  63 3.19  15 3.19  60 3.20  28 3.20
  13  0.000  0.667  0.750- 125 1.95  77 1.95  79 1.95  76 1.96  12 3.18  62 3.18  14 3.18  58 3.18
                            10 3.18  63 3.18  15 3.18  16 3.18  55 3.18   7 3.18  29 3.19  61 3.19
  14  0.125  0.584  0.500-  70 1.94  76 1.95  92 1.95  73 1.95   7 3.17  25 3.18   3 3.18   9 3.18
                            29 3.18  13 3.18   8 3.18  16 3.19  32 3.19  24 3.19  30 3.19  62 3.19
  15  0.125  0.915  0.750-  69 1.95  79 1.95  78 1.95  95 1.95   2 3.13   6 3.16  32 3.17  16 3.17
                            13 3.18  29 3.18  12 3.19  28 3.19  31 3.19  63 3.19  21 3.21   5 3.22
  16  0.000  0.833  0.500-  76 1.95 126 1.95  78 1.95  75 1.95   9 3.17  63 3.17  15 3.17  59 3.17
                            11 3.17  13 3.18  62 3.19  14 3.19  32 3.19  64 3.19  54 3.19   6 3.19
  17  0.249  0.166  0.251-  65 1.94  83 1.95  81 1.95  80 1.96  24 3.17  22 3.18  11 3.18   1 3.18
                             6 3.18  20 3.19  18 3.19   3 3.19  27 3.20  19 3.20  33 3.20   2 3.23
  18  0.375  0.083  0.000-  90 1.94  85 1.95  96 1.96  80 1.97  21 3.18  31 3.18  27 3.18  37 3.18
                             2 3.19  33 3.19  28 3.19  17 3.19  44 3.19  36 3.20  34 3.20  20 3.20
  19  0.375  0.417  0.251-  83 1.95  89 1.95  99 1.95  82 1.96  24 3.17  26 3.18  40 3.18  30 3.18
                            36 3.18  20 3.18  33 3.19  25 3.19  41 3.19  35 3.19   3 3.20  17 3.20
  20  0.249  0.334  0.001-  66 1.94  82 1.95  87 1.96  80 1.96   7 3.17   3 3.18   4 3.18  19 3.18
                            21 3.18  23 3.19  17 3.19  10 3.19  26 3.19  18 3.20  36 3.20   2 3.24
  21  0.250  0.167  0.750-  87 1.95  69 1.95  85 1.95  84 1.95   6 3.16   2 3.17  22 3.18  18 3.18
                            24 3.18  20 3.18  23 3.18  37 3.19  31 3.19   7 3.20   5 3.20  15 3.21
  22  0.375  0.083  0.500-  84 1.95  94 1.95 100 1.95  81 1.96  33 3.17  17 3.18  27 3.18  21 3.18
                            37 3.18  31 3.18   6 3.19  38 3.19  40 3.19  48 3.19  32 3.19  24 3.19
  23  0.375  0.417  0.751-  93 1.95  87 1.95 103 1.95  86 1.96  26 3.18  36 3.18  40 3.18  30 3.18
                            24 3.18  21 3.18  20 3.19   7 3.19  29 3.19  45 3.19  37 3.19  39 3.19
  24  0.250  0.334  0.500-  70 1.95  84 1.95  86 1.95  83 1.96  19 3.17  17 3.17   3 3.18  21 3.18
                             7 3.18  23 3.18  30 3.19  14 3.19  40 3.19   8 3.19  22 3.19   6 3.19
  25  0.250  0.667  0.251-  73 1.95  91 1.95  89 1.95  88 1.96  10 3.17  28 3.18  14 3.18  32 3.18
                            30 3.18  26 3.18  19 3.19  41 3.19  27 3.19   9 3.19   3 3.19  11 3.20
  26  0.375  0.583  0.001-  88 1.94  82 1.95 104 1.95  93 1.96  19 3.18  23 3.18  41 3.18  45 3.18
                            28 3.18  25 3.18  29 3.18  36 3.18  42 3.19  10 3.19  20 3.19  44 3.19
  27  0.375  0.917  0.251-  91 1.95  81 1.95 107 1.95  90 1.96  32 3.17  22 3.18  48 3.18  28 3.18
                            18 3.18  44 3.18  11 3.19  25 3.19  43 3.19  41 3.19  33 3.19  17 3.20
  28  0.251  0.832  0.000-  88 1.94  74 1.95  90 1.95  95 1.96   2 3.16  10 3.17  29 3.17  25 3.18
                            31 3.18  27 3.18  44 3.18  26 3.18  18 3.19  15 3.19  11 3.20  12 3.20
  29  0.250  0.667  0.750-  77 1.95  95 1.95  93 1.95  92 1.95  28 3.17  30 3.17  10 3.18  14 3.18
                            32 3.18  15 3.18   7 3.18  26 3.18  45 3.19  23 3.19  31 3.19  13 3.19
  30  0.375  0.583  0.501-  86 1.95  92 1.95 108 1.95  89 1.96  29 3.17  41 3.18  25 3.18  45 3.18
                            23 3.18  19 3.18  24 3.19  32 3.19  40 3.19  46 3.19  48 3.19  14 3.19
  31  0.375  0.917  0.750-  95 1.95 111 1.95  85 1.95  94 1.96  48 3.18  28 3.18  18 3.18  32 3.18
                            22 3.18  44 3.18  47 3.19  29 3.19  45 3.19  15 3.19  37 3.19  21 3.19
  32  0.250  0.833  0.500-  92 1.95  78 1.95  94 1.95  91 1.95  15 3.17  27 3.17  11 3.17  25 3.18
                            29 3.18  31 3.18  14 3.19  30 3.19  48 3.19   6 3.19  22 3.19  16 3.19
  33  0.500  0.167  0.251-  99 1.95  81 1.95  97 1.95  96 1.96  22 3.17  38 3.17  40 3.18  36 3.18
                            18 3.19  34 3.19  19 3.19  35 3.19  27 3.19  43 3.19  17 3.20  49 3.20
  34  0.625  0.083  0.000- 106 1.94 101 1.95  96 1.96 112 1.97  53 3.18  47 3.18  43 3.18  37 3.18
                            50 3.19  33 3.19  60 3.19  49 3.19  44 3.19  36 3.20  18 3.20  52 3.20
  35  0.625  0.417  0.251- 115 1.95 105 1.95  99 1.95  98 1.96  56 3.17  42 3.18  40 3.18  46 3.18
                            36 3.18  52 3.18  33 3.19  57 3.19  41 3.19  19 3.19  51 3.20  49 3.20
  36  0.500  0.334  0.000-  82 1.95  98 1.95  96 1.95 103 1.96  23 3.18  39 3.18  37 3.18  19 3.18
                            35 3.18  33 3.18  26 3.18  42 3.18  18 3.20  34 3.20  20 3.20  52 3.20
  37  0.500  0.167  0.751- 103 1.95  85 1.95 101 1.95 100 1.96  40 3.18  36 3.18  22 3.18  38 3.18
                            18 3.18  34 3.18  21 3.19  53 3.19  23 3.19  39 3.19  31 3.19  47 3.19
  38  0.625  0.083  0.500- 116 1.95 110 1.95 100 1.95  97 1.96  33 3.17  49 3.18  43 3.18  53 3.18
                            37 3.18  47 3.18  54 3.19  22 3.19  40 3.19  48 3.19  64 3.19  56 3.19
  39  0.625  0.417  0.751- 109 1.95 119 1.95 103 1.95 102 1.96  42 3.18  36 3.18  40 3.18  46 3.18
                            56 3.18  53 3.18  52 3.19  55 3.19  61 3.19  45 3.19  37 3.19  23 3.19
  40  0.500  0.333  0.501-  86 1.95 102 1.95 100 1.95  99 1.96  33 3.18  23 3.18  39 3.18  37 3.18
                            19 3.18  35 3.18  30 3.19  46 3.19  24 3.19  56 3.19  22 3.19  38 3.19
  41  0.500  0.667  0.251-  89 1.95 105 1.95 107 1.95 104 1.96  30 3.18  46 3.18  48 3.18  26 3.18
                            42 3.18  44 3.18  25 3.19  57 3.19  19 3.19  35 3.19  27 3.19  43 3.19
  42  0.625  0.583  0.001- 120 1.94  98 1.95 104 1.95 109 1.96  35 3.18  39 3.18  41 3.18  45 3.18
                            60 3.18  57 3.18  61 3.18  36 3.18  26 3.19  58 3.19  52 3.19  44 3.19
  43  0.625  0.917  0.251- 123 1.95  97 1.95 107 1.95 106 1.96  64 3.17  38 3.18  48 3.18  60 3.18
                            34 3.18  44 3.18  59 3.19  57 3.19  27 3.19  41 3.19  33 3.19  49 3.20
  44  0.500  0.833  0.001- 104 1.95  90 1.95 106 1.95 111 1.96  45 3.18  28 3.18  60 3.18  41 3.18
                            31 3.18  47 3.18  27 3.18  43 3.18  18 3.19  34 3.19  26 3.19  42 3.19
  45  0.500  0.667  0.751-  93 1.95 109 1.95 111 1.95 108 1.96  30 3.18  46 3.18  44 3.18  48 3.18
                            26 3.18  42 3.18  29 3.19  61 3.19  23 3.19  39 3.19  31 3.19  47 3.19
  46  0.625  0.583  0.501- 102 1.95 124 1.95 108 1.95 105 1.96  61 3.17  41 3.18  57 3.18  45 3.18
                            39 3.18  35 3.18  56 3.19  64 3.19  40 3.19  30 3.19  48 3.19  62 3.19
  47  0.625  0.917  0.750- 127 1.95 111 1.95 101 1.95 110 1.96  48 3.18  60 3.18  34 3.18  64 3.18
                            38 3.18  44 3.18  31 3.19  61 3.19  45 3.19  63 3.19  37 3.19  53 3.19
  48  0.500  0.833  0.501- 108 1.95  94 1.95 110 1.95 107 1.96  31 3.18  47 3.18  27 3.18  43 3.18
                            41 3.18  45 3.18  32 3.19  64 3.19  30 3.19  46 3.19  22 3.19  38 3.19
  49  0.751  0.166  0.251- 113 1.94 115 1.95  97 1.95 112 1.96  56 3.17  38 3.18  59 3.18   1 3.18
                            54 3.18  52 3.19  34 3.19  51 3.19  43 3.20  35 3.20  33 3.20  50 3.23
  50  0.875  0.078  0.997- 122 1.93 117 1.94 112 1.97 128 2.03  63 3.13  12 3.15  60 3.16   5 3.16
                            53 3.17  59 3.18  34 3.19   2 3.19  49 3.23  52 3.24   1 3.27   4 3.28
  51  0.876  0.417  0.251-  67 1.95 121 1.95 115 1.95 114 1.96   4 3.17   3 3.17  52 3.18  62 3.18
                            56 3.18   1 3.18   9 3.19   8 3.19  58 3.19  49 3.19  57 3.19  35 3.20
  52  0.751  0.334  0.001- 114 1.94  98 1.95 119 1.96 112 1.96  55 3.17  51 3.18   4 3.18  35 3.18
                            53 3.18  39 3.19  49 3.19  58 3.19  42 3.19  34 3.20  36 3.20  50 3.24
  53  0.750  0.167  0.750- 119 1.95 117 1.95 101 1.95 116 1.95  54 3.16  50 3.17  38 3.18  34 3.18
                            56 3.18  52 3.18  39 3.18  37 3.19  47 3.19  55 3.20   5 3.20  63 3.21
  54  0.875  0.083  0.502- 113 1.95 126 1.95 116 1.95  68 1.95  63 3.16   1 3.16  53 3.16   5 3.18
                            49 3.18  59 3.19  38 3.19  64 3.19   6 3.19  16 3.19  56 3.19   8 3.20
  55  0.875  0.417  0.750-  71 1.94 125 1.95 119 1.95 118 1.95   8 3.16   4 3.17  52 3.17  62 3.17
                            56 3.18  61 3.18  13 3.18  58 3.18  39 3.19   5 3.19  53 3.20   7 3.20
  56  0.750  0.334  0.500- 118 1.95 116 1.95 102 1.95 115 1.96  35 3.17  49 3.17  51 3.18  53 3.18
                            55 3.18  39 3.18  46 3.19  62 3.19  40 3.19   8 3.19  38 3.19  54 3.19
  57  0.750  0.667  0.251- 121 1.95 123 1.95 105 1.95 120 1.96  58 3.17  60 3.18  62 3.18  64 3.18
                            46 3.18  42 3.18  35 3.19  41 3.19  43 3.19   9 3.19  51 3.19  59 3.20
  58  0.875  0.585  0.001- 114 1.93  72 1.95 120 1.95 125 1.96  60 3.17  12 3.17  57 3.17   4 3.17
                            61 3.18   9 3.18  13 3.18  55 3.18  42 3.19  51 3.19  52 3.19  10 3.20
  59  0.875  0.917  0.251- 113 1.94  75 1.95 123 1.95 122 1.96  16 3.17  64 3.17  49 3.18  50 3.18
                            12 3.19  54 3.19  43 3.19  11 3.19   9 3.20  60 3.20   1 3.20  57 3.20
  60  0.749  0.832  0.000- 120 1.94 122 1.95 106 1.95 127 1.96  50 3.16  58 3.17  61 3.17  57 3.18
                            47 3.18  43 3.18  44 3.18  42 3.18  34 3.19  63 3.19  59 3.20  12 3.20
  61  0.750  0.667  0.750- 125 1.95 127 1.95 109 1.95 124 1.95  60 3.17  46 3.17  58 3.18  62 3.18
                            64 3.18  63 3.18  55 3.18  42 3.18  45 3.19  39 3.19  47 3.19  13 3.19
  62  0.875  0.584  0.500- 118 1.94  76 1.95 124 1.95 121 1.95  55 3.17  57 3.18  51 3.18   9 3.18
                            61 3.18  13 3.18   8 3.18  16 3.19  64 3.19  56 3.19  46 3.19  14 3.19
  63  0.875  0.915  0.750- 117 1.95  79 1.95 126 1.95 127 1.95  50 3.13  54 3.16  64 3.17  16 3.17
                            13 3.18  61 3.18  12 3.19  60 3.19  47 3.19  15 3.19  53 3.21   5 3.22
  64  0.750  0.833  0.500- 124 1.95 126 1.95 110 1.95 123 1.95  63 3.17  43 3.17  59 3.17  57 3.18
                            61 3.18  47 3.18  62 3.19  46 3.19  48 3.19  54 3.19  38 3.19  16 3.19
  65  0.126  0.083  0.315-  17 1.94  11 1.94   6 1.95   1 1.96
  66  0.126  0.419  0.062-  10 1.93  20 1.94   4 1.96   3 1.96
  67  0.000  0.335  0.316-   8 1.94  51 1.95   3 1.95   1 1.96
  68  0.000  0.167  0.563-  54 1.95   6 1.95   8 1.95   5 1.96
  69  0.126  0.082  0.809-   2 1.94  15 1.95  21 1.95   5 1.95
  70  0.126  0.417  0.562-  14 1.94  24 1.95   8 1.95   7 1.95
  71  0.000  0.335  0.810-  55 1.94   7 1.94   5 1.95   4 1.97
  72  0.000  0.667  0.062-  12 1.94  58 1.95  10 1.95   9 1.96
  73  0.125  0.584  0.312-  25 1.95   9 1.95   3 1.95  14 1.95
  74  0.126  0.914  0.062-   2 1.93  28 1.95  12 1.95  11 1.96
  75  0.000  0.833  0.311-   9 1.95  59 1.95  11 1.95  16 1.95
  76  0.000  0.667  0.562-  16 1.95  62 1.95  14 1.95  13 1.96
  77  0.125  0.584  0.812-  29 1.95   7 1.95  13 1.95  10 1.96
  78  0.125  0.916  0.562-  32 1.95  16 1.95  15 1.95   6 1.95
  79  0.000  0.833  0.812-  63 1.95  15 1.95  13 1.95  12 1.96
  80  0.248  0.166  0.062-  20 1.96  17 1.96   2 1.97  18 1.97
  81  0.375  0.083  0.311-  33 1.95  27 1.95  17 1.95  22 1.96
  82  0.375  0.416  0.062-  36 1.95  26 1.95  20 1.95  19 1.96
  83  0.250  0.333  0.311-  17 1.95  19 1.95   3 1.95  24 1.96
  84  0.250  0.167  0.562-  22 1.95  24 1.95   6 1.95  21 1.95
  85  0.375  0.083  0.812-  31 1.95  21 1.95  37 1.95  18 1.95
  86  0.375  0.417  0.562-  30 1.95  40 1.95  24 1.95  23 1.96
  87  0.250  0.333  0.812-  21 1.95  23 1.95   7 1.95  20 1.96
  88  0.251  0.667  0.062-  28 1.94  26 1.94  10 1.95  25 1.96
  89  0.375  0.583  0.312-  19 1.95  41 1.95  25 1.95  30 1.96
  90  0.375  0.917  0.062-  18 1.94  28 1.95  44 1.95  27 1.96
  91  0.250  0.833  0.312-  27 1.95  25 1.95  11 1.95  32 1.95
  92  0.250  0.667  0.562-  32 1.95  30 1.95  14 1.95  29 1.95
  93  0.375  0.583  0.812-  23 1.95  45 1.95  29 1.95  26 1.96
  94  0.375  0.917  0.562-  22 1.95  48 1.95  32 1.95  31 1.96
  95  0.250  0.833  0.812-  31 1.95  29 1.95  15 1.95  28 1.96
  96  0.500  0.167  0.062-  36 1.95  18 1.96  34 1.96  33 1.96
  97  0.625  0.083  0.311-  33 1.95  43 1.95  49 1.95  38 1.96
  98  0.625  0.416  0.062-  36 1.95  42 1.95  52 1.95  35 1.96
  99  0.500  0.333  0.312-  33 1.95  19 1.95  35 1.95  40 1.96
 100  0.500  0.167  0.562-  40 1.95  22 1.95  38 1.95  37 1.96
 101  0.625  0.083  0.812-  47 1.95  53 1.95  37 1.95  34 1.95
 102  0.625  0.417  0.562-  46 1.95  40 1.95  56 1.95  39 1.96
 103  0.500  0.333  0.812-  37 1.95  23 1.95  39 1.95  36 1.96
 104  0.500  0.667  0.062-  44 1.95  26 1.95  42 1.95  41 1.96
 105  0.625  0.583  0.312-  35 1.95  41 1.95  57 1.95  46 1.96
 106  0.625  0.917  0.062-  34 1.94  60 1.95  44 1.95  43 1.96
 107  0.500  0.833  0.312-  27 1.95  43 1.95  41 1.95  48 1.96
 108  0.500  0.667  0.562-  48 1.95  30 1.95  46 1.95  45 1.96
 109  0.625  0.583  0.812-  39 1.95  45 1.95  61 1.95  42 1.96
 110  0.625  0.917  0.562-  38 1.95  48 1.95  64 1.95  47 1.96
 111  0.500  0.833  0.812-  45 1.95  31 1.95  47 1.95  44 1.96
 112  0.752  0.166  0.062-  52 1.96  49 1.96  50 1.97  34 1.97
 113  0.874  0.083  0.315-  49 1.94  59 1.94  54 1.95   1 1.96
 114  0.874  0.419  0.062-  58 1.93  52 1.94   4 1.96  51 1.96
 115  0.750  0.333  0.311-  49 1.95  35 1.95  51 1.95  56 1.96
 116  0.750  0.167  0.562-  38 1.95  56 1.95  54 1.95  53 1.95
 117  0.874  0.082  0.809-  50 1.94  63 1.95  53 1.95   5 1.95
 118  0.874  0.417  0.562-  62 1.94  56 1.95   8 1.95  55 1.95
 119  0.750  0.333  0.812-  53 1.95  39 1.95  55 1.95  52 1.96
 120  0.749  0.667  0.062-  60 1.94  42 1.94  58 1.95  57 1.96
 121  0.875  0.584  0.312-  57 1.95   9 1.95  51 1.95  62 1.95
 122  0.874  0.914  0.062-  50 1.93  60 1.95  12 1.95  59 1.96
 123  0.750  0.833  0.312-  43 1.95  57 1.95  59 1.95  64 1.95
 124  0.750  0.667  0.562-  64 1.95  46 1.95  62 1.95  61 1.95
 125  0.875  0.584  0.812-  61 1.95  55 1.95  13 1.95  58 1.96
 126  0.875  0.916  0.562-  64 1.95  16 1.95  63 1.95  54 1.95
 127  0.750  0.833  0.812-  47 1.95  61 1.95  63 1.95  60 1.96
 128  0.000  0.171  0.065-   4 1.96   1 1.96  50 2.03   2 2.03
 
  LATTYP: Found a simple orthorhombic cell.
 ALAT       =    10.3624043883
 B/A-ratio  =     1.0668844541
 C/A-ratio  =     1.2319320532
  
  Lattice vectors:
  
 A1 = (   0.0000000000,   0.0000000000, -10.3624043883)
 A2 = (   0.0000000000, -11.0554881486,   0.0000000000)
 A3 = ( -12.7657781141,   0.0000000000,   0.0000000000)


Analysis of symmetry for initial positions (statically):
=====================================================================
 Subroutine PRICEL returns:
 Original cell was already a primitive cell.
 

 Routine SETGRP: Setting up the symmetry group for a 
 simple orthorhombic supercell.


 Subroutine GETGRP returns: Found  2 space group operations
 (whereof  2 operations were pure point group operations)
 out of a pool of  8 trial point group operations.


The static configuration has the point symmetry C_1h.


Analysis of symmetry for dynamics (positions and initial velocities):
=====================================================================
 Subroutine PRICEL returns:
 Original cell was already a primitive cell.
 

 Routine SETGRP: Setting up the symmetry group for a 
 simple orthorhombic supercell.


 Subroutine GETGRP returns: Found  2 space group operations
 (whereof  2 operations were pure point group operations)
 out of a pool of  8 trial point group operations.


The dynamic configuration has the point symmetry C_1h.


Analysis of structural, dynamic, and magnetic symmetry:
=====================================================================
 Subroutine PRICEL returns:
 Original cell was already a primitive cell.
 

 Routine SETGRP: Setting up the symmetry group for a 
 simple orthorhombic supercell.


 Subroutine GETGRP returns: Found  2 space group operations
 (whereof  2 operations were pure point group operations)
 out of a pool of  8 trial point group operations.


The magnetic configuration has the point symmetry C_1h.


 Subroutine INISYM returns: Found  2 space group operations
 (whereof  2 operations are pure point group operations),
 and found     1 'primitive' translations

 
 
 KPOINTS: Automatic generation                    

Automatic generation of k-mesh.
Space group operators:
 irot       det(A)        alpha          n_x          n_y          n_z        tau_x        tau_y        tau_z
    1     1.000000     0.000000     1.000000     0.000000     0.000000     0.000000     0.000000     0.000000
    2    -1.000000   180.000000     1.000000     0.000000     0.000000     0.000000     0.000000     0.000000
 
 Subroutine IBZKPT returns following result:
 ===========================================
 
 Found      1 irreducible k-points:
 
 Following reciprocal coordinates:
            Coordinates               Weight
  0.000000  0.000000  0.000000      1.000000
 
 Following cartesian coordinates:
            Coordinates               Weight
  0.000000  0.000000  0.000000      1.000000
 
 
 Subroutine IBZKPT_HF returns following result:
 ==============================================
 
 Found      1 k-points in 1st BZ
 the following      1 k-points will be used (e.g. in the exchange kernel)
 Following reciprocal coordinates:   # in IRBZ
  0.000000  0.000000  0.000000    1.00000000   1 t-inv F


--------------------------------------------------------------------------------------------------------




 Dimension of arrays:
   k-points           NKPTS =      1   k-points in BZ     NKDIM =      1   number of bands    NBANDS=    392
   number of dos      NEDOS =    301   number of ions     NIONS =    128
   non local maximal  LDIM  =      5   non local SUM 2l+1 LMDIM =     13
   total plane-waves  NPLWV = 423360
   max r-space proj   IRMAX =      1   max aug-charges    IRDMAX=  21003
   dimension x,y,z NGX =    84 NGY =   72 NGZ =   70
   dimension x,y,z NGXF=   168 NGYF=  144 NGZF=  140
   support grid    NGXF=   168 NGYF=  144 NGZF=  140
   ions per type =              64  64
   NGX,Y,Z   is equivalent  to a cutoff of  10.94, 10.83, 11.23 a.u.
   NGXF,Y,Z  is equivalent  to a cutoff of  21.88, 21.65, 22.46 a.u.

 SYSTEM =  GaN                                     
 POSCAR =  C_N1                                    

 Startparameter for this run:
   NWRITE =      2    write-flag & timer
   PREC   = accura    normal or accurate (medium, high low for compatibility)
   ISTART =      1    job   : 0-new  1-cont  2-samecut
   ICHARG =      1    charge: 1-file 2-atom 10-const
   ISPIN  =      2    spin polarized calculation?
   LNONCOLLINEAR =      F non collinear calculations
   LSORBIT =      F    spin-orbit coupling
   INIWAV =      1    electr: 0-lowe 1-rand  2-diag
   LASPH  =      F    aspherical Exc in radial PAW
   METAGGA=      F    non-selfconsistent MetaGGA calc.

 Electronic Relaxation 1
   ENCUT  =  400.0 eV  29.40 Ry    5.42 a.u.  20.82 18.03 16.90*2*pi/ulx,y,z
   ENINI  =  400.0     initial cutoff
   ENAUG  =  627.1 eV  augmentation charge cutoff
   NELM   =     60;   NELMIN=  2; NELMDL=  0     # of ELM steps 
   EDIFF  = 0.1E-04   stopping-criterion for ELM
   LREAL  =      F    real-space projection
   NLSPLINE    = F    spline interpolate recip. space projectors
   LCOMPAT=      F    compatible to vasp.4.4
   GGA_COMPAT  = T    GGA compatible to vasp.4.4-vasp.4.6
   LMAXPAW     = -100 max onsite density
   LMAXMIX     =    2 max onsite mixed and CHGCAR
   VOSKOWN=      0    Vosko Wilk Nusair interpolation
   ROPT   =    0.00000   0.00000
 Ionic relaxation
   EDIFFG = -.2E-01   stopping-criterion for IOM
   NSW    =      0    number of steps for IOM
   NBLOCK =      1;   KBLOCK =      1    inner block; outer block 
   IBRION =     -1    ionic relax: 0-MD 1-quasi-New 2-CG
   NFREE  =      0    steps in history (QN), initial steepest desc. (CG)
   ISIF   =      2    stress and relaxation
   IWAVPR =     10    prediction:  0-non 1-charg 2-wave 3-comb
   ISYM   =      3    0-nonsym 1-usesym 2-fastsym
   LCORR  =      T    Harris-Foulkes like correction to forces

   POTIM  = 0.5000    time-step for ionic-motion
   TEIN   =    0.0    initial temperature
   TEBEG  =    0.0;   TEEND  =   0.0 temperature during run
   SMASS  =  -3.00    Nose mass-parameter (am)
   estimated Nose-frequenzy (Omega)   =  0.10E-29 period in steps =****** mass=  -0.372E-26a.u.
   SCALEE = 1.0000    scale energy and forces
   NPACO  =    256;   APACO  = 16.0  distance and # of slots for P.C.
   PSTRESS=    0.0 pullay stress

  Mass of Ions in am
   POMASS =  69.72 14.00
  Ionic Valenz
   ZVAL   =   3.00  5.00
  Atomic Wigner-Seitz radii
   RWIGS  =  -1.00 -1.00
  virtual crystal weights 
   VCA    =   1.00  1.00
   NELECT =     512.0000    total number of electrons
   NUPDOWN=      -1.0000    fix difference up-down

 DOS related values:
   EMIN   =  10.00;   EMAX   =-10.00  energy-range for DOS
   EFERMI =   0.00
   ISMEAR =     0;   SIGMA  =   0.05  broadening in eV -4-tet -1-fermi 0-gaus

 Electronic relaxation 2 (details)
   IALGO  =     53    algorithm
   LDIAG  =      T    sub-space diagonalisation (order eigenvalues)
   LSUBROT=      F    optimize rotation matrix (better conditioning)
   TURBO    =      0    0=normal 1=particle mesh
   IRESTART =      0    0=no restart 2=restart with 2 vectors
   NREBOOT  =      0    no. of reboots
   NMIN     =      0    reboot dimension
   EREF     =   0.00    reference energy to select bands
   IMIX   =      4    mixing-type and parameters
     AMIX     =   0.40;   BMIX     =  1.00
     AMIX_MAG =   1.60;   BMIX_MAG =  1.00
     AMIN     =   0.10
     WC   =   100.;   INIMIX=   1;  MIXPRE=   1;  MAXMIX= -45

 Intra band minimization:
   WEIMIN = 0.0000     energy-eigenvalue tresh-hold
   EBREAK =  0.64E-08  absolut break condition
   DEPER  =   0.30     relativ break condition  

   TIME   =   0.20     timestep for ELM

  volume/ion in A,a.u.               =      11.43        77.10
  Fermi-wavevector in a.u.,A,eV,Ry     =   1.153815  2.180394 18.113292  1.331289
  Thomas-Fermi vector in A             =   2.290456
 
 Write flags
   LWAVE        =      T    write WAVECAR
   LDOWNSAMPLE  =      F    k-point downsampling of WAVECAR
   LCHARG       =      T    write CHGCAR
   LVTOT        =      F    write LOCPOT, total local potential
   LVHAR        =      F    write LOCPOT, Hartree potential only
   LELF         =      F    write electronic localiz. function (ELF)
   LORBIT       =     10    0 simple, 1 ext, 2 COOP (PROOUT), +10 PAW based schemes


 Dipole corrections
   LMONO  =      F    monopole corrections only (constant potential shift)
   LDIPOL =      F    correct potential (dipole corrections)
   IDIPOL =      0    1-x, 2-y, 3-z, 4-all directions 
   EPSILON=  1.0000000 bulk dielectric constant

 Exchange correlation treatment:
   GGA     =    PE    GGA type
   LEXCH   =     8    internal setting for exchange type
   VOSKOWN=      0    Vosko Wilk Nusair interpolation
   EXXOEP  =     0    0=HF, 1=EXX-LHF (local Hartree Fock) 2=EXX OEP
   LHFCALC =     T    Hartree Fock is set to
   LSYMGRAD=     F    symmetrize gradient (conserves proper symmetry)
   PRECFOCK=fast      Normal, Fast or Accurate (Low or Medium for compatibility)
   LRHFCALC=     F    long range Hartree Fock
   LRSCOR  =     F    long range correlation only (use DFT for short range part)
   LTHOMAS =     F    Thomas Fermi screening in HF
   LMODELHF=     F    short range full HF, long range fraction AEXX
   ENCUT4O =  -1.0   cutoff for four orbital integrals eV
   LMAXFOCK=     4    L truncation for augmentation on plane wave grid
   LMAXFOCKAE=  -1    L truncation for all-electron charge restoration on plane wave grid
   NMAXFOCKAE=   1    number of basis functions for all-electron charge restoration
   LFOCKAEDFT=     F  apply the AE augmentation even for DFT
   NKREDX  =     1    reduce k-point grid by
   NKREDY  =     1    reduce k-point grid by
   NKREDZ  =     1    reduce k-point grid by
   SHIFTRED=     F    shift reduced grid of Gamma
   HFKIDENT=     F    idential grid for each k-point
   ODDONLY =     F    use only odd q-grid points
   EVENONLY=     F    use only even q-grid points
   HFALPHA =   -1.0000 decay constant for conv. correction
   MCALPHA =    0.0000 extent of test-charge in conv. correction in multipole expansion
   AEXX    =    0.3100 exact exchange contribution
   HFSCREEN=    0.2000 screening length (either q_TF or 0.3 A-1)
   HFSCREENC=   0.2000 screening length for correlation (either q_TF or 0.3 A-1)
   HFRCUT  =    0.0000 spherical cutoff for potential kernel
   ALDAX   =    0.6900 LDA exchange part
   AGGAX   =    0.6900 GGA exchange part
   ALDAC   =    1.0000 LDA correlation
   AGGAC   =    1.0000 GGA correlation
   ENCUTFOCK=  -1.0 apply spherical cutoff to Coloumb kernel
   NBANDSGWLOW=     1    first orbital included in HF term
   NBLOCK_FOCK=    64    blocking factor in FOCK_ACC
 Linear response parameters
   LEPSILON=     F    determine dielectric tensor
   LRPA    =     F    only Hartree local field effects (RPA)
   LNABLA  =     F    use nabla operator in PAW spheres
   LVEL    =     F    velocity operator in full k-point grid
   LINTERFAST=   F  fast interpolation
   KINTER  =     0    interpolate to denser k-point grid
   CSHIFT  =0.1000    complex shift for real part using Kramers Kronig
   OMEGAMAX=  -1.0    maximum frequency
   DEG_THRESHOLD= 0.2000000E-02 threshold for treating states as degnerate
   RTIME   =   -0.100 relaxation time in fs
  (WPLASMAI=    0.000 imaginary part of plasma frequency in eV, 0.658/RTIME)
   DFIELD  = 0.0000000 0.0000000 0.0000000 field for delta impulse in time
 
 Orbital magnetization related:
   ORBITALMAG=     F  switch on orbital magnetization
   LCHIMAG   =     F  perturbation theory with respect to B field
   DQ        =  0.001000  dq finite difference perturbation B field
   LLRAUG    =     F  two centre corrections for induced B field



--------------------------------------------------------------------------------------------------------


 Static calculation
 charge density and potential will be updated during run
 spin polarized calculation
 Conjugate gradient for all bands (Freysoldt, et al. PRB 79, 241103 (2009))
 perform sub-space diagonalisation
    before iterative eigenvector-optimisation
 modified Broyden-mixing scheme, WC =      100.0
 initial mixing is a Kerker type mixing with AMIX =  0.4000 and BMIX =      1.0000
 Hartree-type preconditioning will be used
 using additional bands          136
 reciprocal scheme for non local part
 use partial core corrections
 no Harris-corrections to forces 
 use gradient corrections 
 use of overlap-Matrix (Vanderbilt PP)
 Gauss-broadening in eV      SIGMA  =   0.05


--------------------------------------------------------------------------------------------------------


  energy-cutoff  :      400.00
  volume of cell :     1462.47
      direct lattice vectors                 reciprocal lattice vectors
    12.765778114  0.000000000  0.000000000     0.078334434  0.000000000  0.000000000
     0.000000000 11.055488149  0.000000000     0.000000000  0.090452813  0.000000000
     0.000000000  0.000000000 10.362404388     0.000000000  0.000000000  0.096502700

  length of vectors
    12.765778114 11.055488149 10.362404388     0.078334434  0.090452813  0.096502700


 
 old parameters found on file WAVECAR:
  energy-cutoff  :      400.00
  volume of cell :     1462.47
      direct lattice vectors                 reciprocal lattice vectors
    12.765778114  0.000000000  0.000000000     0.078334434  0.000000000  0.000000000
     0.000000000 11.055488149  0.000000000     0.000000000  0.090452813  0.000000000
     0.000000000  0.000000000 10.362404388     0.000000000  0.000000000  0.096502700

  length of vectors

 
 k-points in units of 2pi/SCALE and weight: Automatic generation                    
   0.00000000  0.00000000  0.00000000       1.000
 
 k-points in reciprocal lattice and weights: Automatic generation                    
   0.00000000  0.00000000  0.00000000       1.000
 
 position of ions in fractional coordinates (direct lattice) 
   0.00000000  0.16752731  0.25471232
   0.12511071  0.07785986  0.99659447
   0.12435565  0.41674094  0.25084540
   0.00000000  0.33682851  0.99959886
   0.00000000  0.16778663  0.75169371
   0.12511430  0.08323469  0.50248958
   0.12534789  0.41749170  0.75039492
   0.00000000  0.33431227  0.50274742
   0.00000000  0.66664310  0.25064974
   0.12543787  0.58462755  0.00066754
   0.12500914  0.91705757  0.25113684
   0.00000000  0.83233612  0.00081358
   0.00000000  0.66651023  0.75042147
   0.12509373  0.58351166  0.50040936
   0.12502775  0.91534147  0.74957739
   0.00000000  0.83301030  0.50004365
   0.24897410  0.16632342  0.25133364
   0.37469798  0.08304651  0.00042467
   0.37486215  0.41656905  0.25062643
   0.24894466  0.33383396  0.00079622
   0.25043478  0.16713200  0.75027970
   0.37499617  0.08343578  0.50035132
   0.37497575  0.41665983  0.75055800
   0.25002869  0.33361078  0.50025378
   0.25006274  0.66656768  0.25072241
   0.37516479  0.58287003  0.00067002
   0.37499051  0.91660320  0.25078523
   0.25095993  0.83226818  0.00043585
   0.25024778  0.66657126  0.75030972
   0.37506110  0.58335762  0.50060519
   0.37506416  0.91659719  0.75038456
   0.25015847  0.83321074  0.50033717
   0.50000000  0.16683748  0.25097765
   0.62530204  0.08304651  0.00042467
   0.62513787  0.41656905  0.25062643
   0.50000000  0.33353596  0.00041758
   0.50000000  0.16674163  0.75050144
   0.62500384  0.08343578  0.50035132
   0.62502426  0.41665983  0.75055800
   0.50000000  0.33349144  0.50065303
   0.50000000  0.66652119  0.25073548
   0.62483522  0.58287003  0.00067002
   0.62500951  0.91660320  0.25078523
   0.50000000  0.83318637  0.00057060
   0.50000000  0.66657752  0.75057559
   0.62493891  0.58335762  0.50060519
   0.62493586  0.91659719  0.75038456
   0.50000000  0.83333901  0.50060502
   0.75102590  0.16632342  0.25133364
   0.87488930  0.07785986  0.99659447
   0.87564436  0.41674094  0.25084540
   0.75105534  0.33383396  0.00079622
   0.74956522  0.16713200  0.75027970
   0.87488571  0.08323469  0.50248958
   0.87465212  0.41749170  0.75039492
   0.74997131  0.33361078  0.50025378
   0.74993726  0.66656768  0.25072241
   0.87456214  0.58462755  0.00066754
   0.87499087  0.91705757  0.25113684
   0.74904007  0.83226818  0.00043585
   0.74975222  0.66657126  0.75030972
   0.87490629  0.58351166  0.50040936
   0.87497227  0.91534147  0.74957739
   0.74984153  0.83321074  0.50033717
   0.12560937  0.08256949  0.31471993
   0.12572469  0.41942051  0.06199246
   0.00000000  0.33512127  0.31553517
   0.00000000  0.16702773  0.56292356
   0.12554478  0.08223383  0.80934684
   0.12570046  0.41739190  0.56205950
   0.00000000  0.33534359  0.80978971
   0.00000000  0.66667406  0.06198377
   0.12509553  0.58359927  0.31182866
   0.12570300  0.91415755  0.06203100
   0.00000000  0.83331031  0.31141608
   0.00000000  0.66664912  0.56171099
   0.12522921  0.58397264  0.81180514
   0.12501373  0.91592236  0.56157809
   0.00000000  0.83304984  0.81198246
   0.24777745  0.16630127  0.06171761
   0.37491391  0.08338625  0.31137524
   0.37490155  0.41617099  0.06177159
   0.24985866  0.33320067  0.31137949
   0.25047311  0.16713461  0.56196514
   0.37508231  0.08320520  0.81198181
   0.37508624  0.41684619  0.56176512
   0.25003927  0.33335071  0.81207673
   0.25088529  0.66673608  0.06204247
   0.37506748  0.58313337  0.31184579
   0.37516677  0.91696991  0.06186225
   0.25013772  0.83319881  0.31167974
   0.25018110  0.66680503  0.56167106
   0.37511278  0.58314703  0.81183141
   0.37504553  0.91687085  0.56166347
   0.25032227  0.83308226  0.81169885
   0.50000000  0.16684680  0.06185502
   0.62508610  0.08338625  0.31137524
   0.62509846  0.41617099  0.06177159
   0.50000000  0.33333952  0.31179221
   0.50000000  0.16675741  0.56170917
   0.62491771  0.08320520  0.81198181
   0.62491377  0.41684619  0.56176512
   0.50000000  0.33322407  0.81171614
   0.50000000  0.66662890  0.06185536
   0.62493253  0.58313337  0.31184579
   0.62483324  0.91696991  0.06186225
   0.50000000  0.83321162  0.31176457
   0.50000000  0.66684239  0.56180896
   0.62488723  0.58314703  0.81183141
   0.62495448  0.91687085  0.56166347
   0.50000000  0.83323231  0.81180083
   0.75222255  0.16630127  0.06171761
   0.87439064  0.08256949  0.31471993
   0.87427533  0.41942051  0.06199246
   0.75014134  0.33320067  0.31137949
   0.74952689  0.16713461  0.56196514
   0.87445523  0.08223383  0.80934684
   0.87429956  0.41739190  0.56205950
   0.74996073  0.33335071  0.81207673
   0.74911471  0.66673608  0.06204247
   0.87490448  0.58359927  0.31182866
   0.87429702  0.91415755  0.06203100
   0.74986228  0.83319881  0.31167974
   0.74981890  0.66680503  0.56167106
   0.87477080  0.58397264  0.81180514
   0.87498629  0.91592236  0.56157809
   0.74967773  0.83308226  0.81169885
   0.00000000  0.17089710  0.06528132
 
 position of ions in cartesian coordinates  (Angst):
   0.00000000  1.85209620  2.63943202
   1.59713555  0.86077877 10.32711493
   1.58749665  4.60727452  2.59936146
   0.00000000  3.72380356 10.35824763
   0.00000000  1.85496305  7.78935423
   1.59718140  0.92020009  5.20700019
   1.60016339  4.61557457  7.77589564
   0.00000000  3.69598535  5.20967210
   0.00000000  7.37006487  2.59733394
   1.60131202  6.46334297  0.00691734
   1.59583897 10.13851911  2.60238146
   0.00000000  9.20188208  0.00843065
   0.00000000  7.36859600  7.77617077
   1.59691875  6.45100619  5.18544410
   1.59607650 10.11954680  7.76742403
   0.00000000  9.20933555  5.18165446
   3.17834806  1.83878660  2.60442077
   4.78331126  0.91811972  0.00440065
   4.78540697  4.60537420  2.59709240
   3.17797227  3.69069744  0.00825074
   3.19699483  1.84772585  7.77470171
   4.78711794  0.92242331  5.18484273
   4.78685728  4.60637779  7.77758554
   3.19181072  3.68823002  5.18383198
   3.19224545  7.36923114  2.59808704
   4.78927048  6.44391275  0.00694304
   4.78704562 10.13349584  2.59873793
   3.20369879  9.20113101  0.00451650
   3.19460766  7.36927063  7.77501276
   4.78794682  6.44930326  5.18747346
   4.78798580 10.13342939  7.77578821
   3.19346757  9.21155143  5.18469614
   6.38288906  1.84446976  2.60073191
   7.98246703  0.91811972  0.00440065
   7.98037132  4.60537420  2.59709240
   6.38288906  3.68740284  0.00432717
   6.38288906  1.84341013  7.77699942
   7.97866036  0.92242331  5.18484273
   7.97892101  4.60637779  7.77758554
   6.38288906  3.68691063  5.18796916
   6.38288906  7.36871713  2.59822241
   7.97650781  6.44391275  0.00694304
   7.97873267 10.13349584  2.59873793
   6.38288906  9.21128205  0.00591274
   6.38288906  7.36933983  7.77776779
   7.97783147  6.44930326  5.18747346
   7.97779249 10.13342939  7.77578821
   6.38288906  9.21296955  5.18747165
   9.58743006  1.83878660  2.60442077
  11.16864274  0.86077877 10.32711493
  11.17828165  4.60727452  2.59936146
   9.58780585  3.69069744  0.00825074
   9.56878329  1.84772585  7.77470171
  11.16859689  0.92020009  5.20700019
  11.16561490  4.61557457  7.77589564
   9.57396739  3.68823002  5.18383198
   9.57353267  7.36923114  2.59808704
  11.16446627  6.46334297  0.00691734
  11.16993932 10.13851911  2.60238146
   9.56207932  9.20113101  0.00451650
   9.57117046  7.36927063  7.77501276
  11.16885954  6.45100619  5.18544410
  11.16970180 10.11954680  7.76742403
   9.57231054  9.21155143  5.18469614
   1.60350135  0.91284600  3.26125522
   1.60497345  4.63689851  0.64239095
   0.00000000  3.70492922  3.26970304
   0.00000000  1.84657307  5.83324153
   1.60267680  0.90913515  8.38677921
   1.60466414  4.61447122  5.82428785
   0.00000000  3.70738704  8.39136842
   0.00000000  7.37040721  0.64230092
   1.59694184  6.45197481  3.23129466
   1.60469659 10.10645799  0.64279026
   0.00000000  9.21265221  3.22701938
   0.00000000  7.37013146  5.82067639
   1.59864835  6.45610258  8.41225310
   1.59589751 10.12596879  5.81929923
   0.00000000  9.20977264  8.41409056
   3.16307197  1.83854170  0.63954284
   4.78606780  0.92187572  3.22659615
   4.78591006  4.60097345  0.64010216
   3.18964018  3.68369603  3.22664019
   3.19748412  1.84775472  5.82331008
   4.78821749  0.91987414  8.41408383
   4.78826773  4.60843810  5.82123732
   3.19194584  3.68535477  8.41506742
   3.20274598  7.37109284  0.64290912
   4.78802823  6.44682404  3.23147222
   4.78929576 10.13754994  0.64104160
   3.19320260  9.21141952  3.22975148
   3.19375643  7.37185506  5.82026261
   4.78860657  6.44697505  8.41252539
   4.78774804 10.13645484  5.82018403
   3.19555853  9.21013107  8.41115171
   6.38288906  1.84457277  0.64096677
   7.97971050  0.92187572  3.22659615
   7.97986823  4.60097345  0.64010216
   6.38288906  3.68523114  3.23091701
   6.38288906  1.84358456  5.82065760
   7.97756080  0.91987414  8.41408383
   7.97751056  4.60843810  5.82123732
   6.38288906  3.68395475  8.41133092
   6.38288906  7.36990785  0.64097023
   7.97775006  6.44682404  3.23147222
   7.97648253 10.13754994  0.64104160
   6.38288906  9.21156120  3.23063050
   6.38288906  7.37226812  5.82169163
   7.97717172  6.44697505  8.41252539
   7.97803026 10.13645484  5.82018403
   6.38288906  9.21178998  8.41220853
   9.60270614  1.83854170  0.63954284
  11.16227695  0.91284600  3.26125522
  11.16080484  4.63689851  0.64239095
   9.57613794  3.68369603  3.22664019
   9.56829399  1.84775472  5.82331008
  11.16310149  0.90913515  8.38677921
  11.16111415  4.61447122  5.82428785
   9.57383228  3.68535477  8.41506742
   9.56303214  7.37109284  0.64290912
  11.16883645  6.45197481  3.23129466
  11.16108170 10.10645799  0.64279026
   9.57257552  9.21141952  3.22975148
   9.57202168  7.37185506  5.82026261
  11.16712994  6.45610258  8.41225310
  11.16988078 10.12596879  5.81929923
   9.57021958  9.21013107  8.41115171
   0.00000000  1.88935084  0.67647147
 


--------------------------------------------------------------------------------------------------------


 use parallel FFT for orbitals z direction half grid
 k-point  1 :   0.0000 0.0000 0.0000  plane waves:   13285

 maximum and minimum number of plane-waves per node :      1113     1104

 maximum number of plane-waves:     13285
 maximum index in each direction: 
   IXMAX=   20   IYMAX=   18   IZMAX=   16
   IXMIN=  -20   IYMIN=  -17   IZMIN=    0


 parallel 3D FFT for wavefunctions:
    minimum data exchange during FFTs selected (reduces bandwidth)
 parallel 3D FFT for charge:
    minimum data exchange during FFTs selected (reduces bandwidth)


 FFT grid for exact exchange (Hartree Fock) 
  NGX = 48; NGY = 40; NGZ = 36

 use parallel FFT for orbitals z direction half grid
 
 Radii for the augmentation spheres in the non-local exchange
 for species   1 augmentation radius   1.723 (default was   1.277)
       energy cutoff for augmentation   1600.0
 for species   2 augmentation radius   0.957 (default was   0.709)
       energy cutoff for augmentation   1600.0

 real space projection operators:
  total allocation   :      13440.00 KBytes
  max/ min on nodes  :       1219.37       1011.61

 Maximum index for augmentation-charges in exchange          117
  SETUP_FOCK is finished

 total amount of memory used by VASP MPI-rank0    47867. kBytes
=======================================================================

   base      :      30000. kBytes
   nonl-proj :       2526. kBytes
   fftplans  :       2292. kBytes
   grid      :       6100. kBytes
   one-center:         89. kBytes
   HF        :         67. kBytes
   nonlr-proj:       1243. kBytes
   wavefun   :       5550. kBytes
 
     INWAV:  cpu time    0.3022: real time    0.3037
 Broyden mixing: mesh for mixing (old mesh)
   NGX = 41   NGY = 37   NGZ = 33
  (NGX  =168   NGY  =144   NGZ  =140)
  gives a total of  50061 points

 initial charge density was supplied:
 number of electron     512.0000316 magnetization      -0.0000000
 charge density for first step will be calculated from the start-wavefunctions


--------------------------------------------------------------------------------------------------------


 Maximum index for augmentation-charges          908 (set IRDMAX)


--------------------------------------------------------------------------------------------------------


 initial charge from wavefunction
 First call to EWALD:  gamma=   0.156
 Maximum number of real-space cells 2x 3x 3
 Maximum number of reciprocal cells 3x 3x 3

    FEWALD:  cpu time    0.0074: real time    0.0084


--------------------------------------- Iteration      1(   1)  ---------------------------------------


    POTLOK:  cpu time    0.1505: real time    0.1549
    SETDIJ:  cpu time    0.2985: real time    0.3003
    TRIAL :  cpu time   10.5471: real time   10.5795
    CORREC:  cpu time    0.0003: real time    0.0002
    CHARGE:  cpu time    0.0501: real time    0.0502
    --------------------------------------------
      LOOP:  cpu time   11.0500: real time   11.0888

 eigenvalue-minimisations  :     0
 total energy-change (2. order) :-0.9801886E+03  (-0.3961465E+01)
 number of electron     512.0000268 magnetization      -0.0000000
 augmentation part      -11.3486147 magnetization      -0.0000704

 Free energy of the ion-electron system (eV)
  ---------------------------------------------------
  alpha Z        PSCENC =      1815.09530317
  Ewald energy   TEWEN  =    -18380.23869508
  -Hartree energ DENC   =     -5005.63916311
  -exchange      EXHF   =      1371.34071187
  -V(xc)+E(xc)   XCENC  =        25.61266218
  PAW double counting   =     73398.71686822   -72321.35936293
  entropy T*S    EENTRO =        -0.00000000
  eigenvalues    EBANDS =     -2304.75193974
  atomic energy  EATOM  =     20421.03502778
  ---------------------------------------------------
  free energy    TOTEN  =      -980.18858764 eV

  energy without entropy =     -980.18858764  energy(sigma->0) =     -980.18858764
  exchange ACFDT corr.  =         0.00000000  see jH, gK, PRB 81, 115126


--------------------------------------------------------------------------------------------------------




--------------------------------------- Iteration      1(   2)  ---------------------------------------


    POTLOK:  cpu time    0.1582: real time    0.1631
    SETDIJ:  cpu time    0.2929: real time    0.2963
    TRIAL :  cpu time   10.6859: real time   10.7191
    CORREC:  cpu time    0.0002: real time    0.0002
    CHARGE:  cpu time    0.0482: real time    0.0484
    --------------------------------------------
      LOOP:  cpu time   11.1888: real time   11.2320

 eigenvalue-minimisations  :     0
 total energy-change (2. order) :-0.3393031E+01  (-0.3617293E+01)
 number of electron     512.0000268 magnetization      -0.0000000
 augmentation part      -11.3391101 magnetization      -0.0001414

 Free energy of the ion-electron system (eV)
  ---------------------------------------------------
  alpha Z        PSCENC =      1815.09530317
  Ewald energy   TEWEN  =    -18380.23869508
  -Hartree energ DENC   =     -5004.96079455
  -exchange      EXHF   =      1371.26172777
  -V(xc)+E(xc)   XCENC  =        25.56362440
  PAW double counting   =     73080.20978945   -72002.87269968
  entropy T*S    EENTRO =        -0.00000000
  eigenvalues    EBANDS =     -2308.67490154
  atomic energy  EATOM  =     20421.03502778
  ---------------------------------------------------
  free energy    TOTEN  =      -983.58161828 eV

  energy without entropy =     -983.58161828  energy(sigma->0) =     -983.58161828
  exchange ACFDT corr.  =        -0.00000000  see jH, gK, PRB 81, 115126


--------------------------------------------------------------------------------------------------------




--------------------------------------- Iteration      1(   3)  ---------------------------------------


    POTLOK:  cpu time    0.1605: real time    0.1651
    SETDIJ:  cpu time    0.2975: real time    0.2983
    TRIAL :  cpu time   10.7500: real time   10.7813
    CORREC:  cpu time    0.0003: real time    0.0003
    CHARGE:  cpu time    0.0479: real time    0.0480
    --------------------------------------------
      LOOP:  cpu time   11.2566: real time   11.2973

 eigenvalue-minimisations  :     0
 total energy-change (2. order) :-0.2794393E+01  (-0.1845236E+01)
 number of electron     512.0000268 magnetization      -0.0000000
 augmentation part      -11.3259608 magnetization      -0.0001787

 Free energy of the ion-electron system (eV)
  ---------------------------------------------------
  alpha Z        PSCENC =      1815.09530317
  Ewald energy   TEWEN  =    -18380.23869508
  -Hartree energ DENC   =     -5005.25934489
  -exchange      EXHF   =      1371.22050731
  -V(xc)+E(xc)   XCENC  =        25.54979788
  PAW double counting   =     72750.52525873   -71673.21626814
  entropy T*S    EENTRO =        -0.00000000
  eigenvalues    EBANDS =     -2311.08759806
  atomic energy  EATOM  =     20421.03502778
  ---------------------------------------------------
  free energy    TOTEN  =      -986.37601130 eV

  energy without entropy =     -986.37601130  energy(sigma->0) =     -986.37601130
  exchange ACFDT corr.  =         0.00000000  see jH, gK, PRB 81, 115126


--------------------------------------------------------------------------------------------------------




--------------------------------------- Iteration      1(   4)  ---------------------------------------


    POTLOK:  cpu time    0.1468: real time    0.1516
    SETDIJ:  cpu time    0.2961: real time    0.2976
    TRIAL :  cpu time   10.7463: real time   10.7819
    CORREC:  cpu time    0.0003: real time    0.0003
    CHARGE:  cpu time    0.0480: real time    0.0481
    --------------------------------------------
      LOOP:  cpu time   11.2378: real time   11.2837

 eigenvalue-minimisations  :     0
 total energy-change (2. order) :-0.1321386E+01  (-0.7404406E+00)
 number of electron     512.0000268 magnetization      -0.0000000
 augmentation part      -11.3125738 magnetization      -0.0001682

 Free energy of the ion-electron system (eV)
  ---------------------------------------------------
  alpha Z        PSCENC =      1815.09530317
  Ewald energy   TEWEN  =    -18380.23869508
  -Hartree energ DENC   =     -5006.74652253
  -exchange      EXHF   =      1371.27435362
  -V(xc)+E(xc)   XCENC  =        25.60392272
  PAW double counting   =     72539.40410417   -71462.12282056
  entropy T*S    EENTRO =        -0.00000000
  eigenvalues    EBANDS =     -2311.00207023
  atomic energy  EATOM  =     20421.03502778
  ---------------------------------------------------
  free energy    TOTEN  =      -987.69739695 eV

  energy without entropy =     -987.69739695  energy(sigma->0) =     -987.69739695
  exchange ACFDT corr.  =         0.00000000  see jH, gK, PRB 81, 115126


--------------------------------------------------------------------------------------------------------




--------------------------------------- Iteration      1(   5)  ---------------------------------------


    POTLOK:  cpu time    0.1453: real time    0.1500
    SETDIJ:  cpu time    0.2940: real time    0.2947
    TRIAL :  cpu time   10.7655: real time   10.7940
    CORREC:  cpu time    0.0002: real time    0.0002
    CHARGE:  cpu time    0.0520: real time    0.0521
    --------------------------------------------
      LOOP:  cpu time   11.2574: real time   11.2953

 eigenvalue-minimisations  :     0
 total energy-change (2. order) :-0.5056951E+00  (-0.2930054E+00)
 number of electron     512.0000268 magnetization      -0.0000000
 augmentation part      -11.3028148 magnetization      -0.0001238

 Free energy of the ion-electron system (eV)
  ---------------------------------------------------
  alpha Z        PSCENC =      1815.09530317
  Ewald energy   TEWEN  =    -18380.23869508
  -Hartree energ DENC   =     -5008.42457466
  -exchange      EXHF   =      1371.37695256
  -V(xc)+E(xc)   XCENC  =        25.68753732
  PAW double counting   =     72444.92387255   -71367.66426003
  entropy T*S    EENTRO =        -0.00000000
  eigenvalues    EBANDS =     -2309.99425567
  atomic energy  EATOM  =     20421.03502778
  ---------------------------------------------------
  free energy    TOTEN  =      -988.20309207 eV

  energy without entropy =     -988.20309207  energy(sigma->0) =     -988.20309207
  exchange ACFDT corr.  =         0.00000000  see jH, gK, PRB 81, 115126


--------------------------------------------------------------------------------------------------------




--------------------------------------- Iteration      1(   6)  ---------------------------------------


    POTLOK:  cpu time    0.1464: real time    0.1515
    SETDIJ:  cpu time    0.2977: real time    0.2984
    TRIAL :  cpu time   10.7851: real time   10.8170
    CORREC:  cpu time    0.0003: real time    0.0003
    CHARGE:  cpu time    0.0476: real time    0.0477
    --------------------------------------------
      LOOP:  cpu time   11.2779: real time   11.3198

 eigenvalue-minimisations  :     0
 total energy-change (2. order) :-0.1861963E+00  (-0.1048978E+00)
 number of electron     512.0000268 magnetization      -0.0000000
 augmentation part      -11.2979653 magnetization      -0.0000675

 Free energy of the ion-electron system (eV)
  ---------------------------------------------------
  alpha Z        PSCENC =      1815.09530317
  Ewald energy   TEWEN  =    -18380.23869508
  -Hartree energ DENC   =     -5009.42904919
  -exchange      EXHF   =      1371.45368941
  -V(xc)+E(xc)   XCENC  =        25.74841486
  PAW double counting   =     72419.32544002   -71342.08061113
  entropy T*S    EENTRO =        -0.00000000
  eigenvalues    EBANDS =     -2309.29880821
  atomic energy  EATOM  =     20421.03502778
  ---------------------------------------------------
  free energy    TOTEN  =      -988.38928837 eV

  energy without entropy =     -988.38928837  energy(sigma->0) =     -988.38928837
  exchange ACFDT corr.  =         0.00000000  see jH, gK, PRB 81, 115126


--------------------------------------------------------------------------------------------------------




--------------------------------------- Iteration      1(   7)  ---------------------------------------


    POTLOK:  cpu time    0.1429: real time    0.1476
    SETDIJ:  cpu time    0.2968: real time    0.2976
    TRIAL :  cpu time   10.7884: real time   10.8200
    CORREC:  cpu time    0.0003: real time    0.0002
    CHARGE:  cpu time    0.0478: real time    0.0480
    --------------------------------------------
      LOOP:  cpu time   11.2765: real time   11.3179

 eigenvalue-minimisations  :     0
 total energy-change (2. order) :-0.5469488E-01  (-0.3324605E-01)
 number of electron     512.0000268 magnetization      -0.0000000
 augmentation part      -11.2968851 magnetization      -0.0000195

 Free energy of the ion-electron system (eV)
  ---------------------------------------------------
  alpha Z        PSCENC =      1815.09530317
  Ewald energy   TEWEN  =    -18380.23869508
  -Hartree energ DENC   =     -5009.63020740
  -exchange      EXHF   =      1371.47747678
  -V(xc)+E(xc)   XCENC  =        25.76833929
  PAW double counting   =     72421.63272008   -71344.39664767
  entropy T*S    EENTRO =        -0.00000000
  eigenvalues    EBANDS =     -2309.18730020
  atomic energy  EATOM  =     20421.03502778
  ---------------------------------------------------
  free energy    TOTEN  =      -988.44398325 eV

  energy without entropy =     -988.44398325  energy(sigma->0) =     -988.44398325
  exchange ACFDT corr.  =         0.00000000  see jH, gK, PRB 81, 115126


--------------------------------------------------------------------------------------------------------




--------------------------------------- Iteration      1(   8)  ---------------------------------------


    POTLOK:  cpu time    0.1470: real time    0.1547
    SETDIJ:  cpu time    0.2939: real time    0.2946
    TRIAL :  cpu time   10.7606: real time   10.7895
    CORREC:  cpu time    0.0002: real time    0.0002
    CHARGE:  cpu time    0.0477: real time    0.0478
    --------------------------------------------
      LOOP:  cpu time   11.2498: real time   11.2912

 eigenvalue-minimisations  :     0
 total energy-change (2. order) :-0.1434140E-01  (-0.2264554E-01)
 number of electron     512.0000268 magnetization      -0.0000000
 augmentation part      -11.2975406 magnetization       0.0000095

 Free energy of the ion-electron system (eV)
  ---------------------------------------------------
  alpha Z        PSCENC =      1815.09530317
  Ewald energy   TEWEN  =    -18380.23869508
  -Hartree energ DENC   =     -5009.36156897
  -exchange      EXHF   =      1371.46519807
  -V(xc)+E(xc)   XCENC  =        25.75905142
  PAW double counting   =     72430.23222275   -71353.00069492
  entropy T*S    EENTRO =        -0.00000000
  eigenvalues    EBANDS =     -2309.44416887
  atomic energy  EATOM  =     20421.03502778
  ---------------------------------------------------
  free energy    TOTEN  =      -988.45832465 eV

  energy without entropy =     -988.45832465  energy(sigma->0) =     -988.45832465
  exchange ACFDT corr.  =         0.00000000  see jH, gK, PRB 81, 115126


--------------------------------------------------------------------------------------------------------




--------------------------------------- Iteration      1(   9)  ---------------------------------------


    POTLOK:  cpu time    0.1433: real time    0.1436
    SETDIJ:  cpu time    0.2965: real time    0.2974
    TRIAL :  cpu time   10.7923: real time   10.8220
    CORREC:  cpu time    0.0003: real time    0.0003
    CHARGE:  cpu time    0.0476: real time    0.0477
    --------------------------------------------
      LOOP:  cpu time   11.2803: real time   11.3113

 eigenvalue-minimisations  :     0
 total energy-change (2. order) :-0.1549154E-01  (-0.2257775E-01)
 number of electron     512.0000268 magnetization      -0.0000000
 augmentation part      -11.2983348 magnetization       0.0000178

 Free energy of the ion-electron system (eV)
  ---------------------------------------------------
  alpha Z        PSCENC =      1815.09530317
  Ewald energy   TEWEN  =    -18380.23869508
  -Hartree energ DENC   =     -5009.01251005
  -exchange      EXHF   =      1371.44379531
  -V(xc)+E(xc)   XCENC  =        25.74077637
  PAW double counting   =     72437.03132215   -71359.80177302
  entropy T*S    EENTRO =        -0.00000000
  eigenvalues    EBANDS =     -2309.76706281
  atomic energy  EATOM  =     20421.03502778
  ---------------------------------------------------
  free energy    TOTEN  =      -988.47381619 eV

  energy without entropy =     -988.47381619  energy(sigma->0) =     -988.47381619
  exchange ACFDT corr.  =         0.00000000  see jH, gK, PRB 81, 115126


--------------------------------------------------------------------------------------------------------




--------------------------------------- Iteration      1(  10)  ---------------------------------------


    POTLOK:  cpu time    0.1455: real time    0.1459
    SETDIJ:  cpu time    0.2964: real time    0.2971
    TRIAL :  cpu time   10.8563: real time   10.8878
    CORREC:  cpu time    0.0002: real time    0.0002
    CHARGE:  cpu time    0.0479: real time    0.0481
    --------------------------------------------
      LOOP:  cpu time   11.3468: real time   11.3795

 eigenvalue-minimisations  :     0
 total energy-change (2. order) :-0.1733578E-01  (-0.1579993E-01)
 number of electron     512.0000268 magnetization      -0.0000000
 augmentation part      -11.2985663 magnetization       0.0000116

 Free energy of the ion-electron system (eV)
  ---------------------------------------------------
  alpha Z        PSCENC =      1815.09530317
  Ewald energy   TEWEN  =    -18380.23869508
  -Hartree energ DENC   =     -5008.80699706
  -exchange      EXHF   =      1371.43015080
  -V(xc)+E(xc)   XCENC  =        25.72765409
  PAW double counting   =     72440.55354704   -71363.32469990
  entropy T*S    EENTRO =        -0.00000000
  eigenvalues    EBANDS =     -2309.96244280
  atomic energy  EATOM  =     20421.03502778
  ---------------------------------------------------
  free energy    TOTEN  =      -988.49115197 eV

  energy without entropy =     -988.49115197  energy(sigma->0) =     -988.49115197
  exchange ACFDT corr.  =         0.00000000  see jH, gK, PRB 81, 115126


--------------------------------------------------------------------------------------------------------




--------------------------------------- Iteration      1(  11)  ---------------------------------------


    POTLOK:  cpu time    0.1435: real time    0.1481
    SETDIJ:  cpu time    0.2977: real time    0.2985
    TRIAL :  cpu time   10.8057: real time   10.8365
    CORREC:  cpu time    0.0002: real time    0.0002
    CHARGE:  cpu time    0.0476: real time    0.0477
    --------------------------------------------
      LOOP:  cpu time   11.2951: real time   11.3355

 eigenvalue-minimisations  :     0
 total energy-change (2. order) :-0.1190900E-01  (-0.8548356E-02)
 number of electron     512.0000268 magnetization      -0.0000000
 augmentation part      -11.2982745 magnetization      -0.0000012

 Free energy of the ion-electron system (eV)
  ---------------------------------------------------
  alpha Z        PSCENC =      1815.09530317
  Ewald energy   TEWEN  =    -18380.23869508
  -Hartree energ DENC   =     -5008.78089345
  -exchange      EXHF   =      1371.42843352
  -V(xc)+E(xc)   XCENC  =        25.72397583
  PAW double counting   =     72441.64005596   -71364.41130269
  entropy T*S    EENTRO =        -0.00000000
  eigenvalues    EBANDS =     -2309.99496601
  atomic energy  EATOM  =     20421.03502778
  ---------------------------------------------------
  free energy    TOTEN  =      -988.50306097 eV

  energy without entropy =     -988.50306097  energy(sigma->0) =     -988.50306097
  exchange ACFDT corr.  =         0.00000000  see jH, gK, PRB 81, 115126


--------------------------------------------------------------------------------------------------------




--------------------------------------- Iteration      1(  12)  ---------------------------------------


    POTLOK:  cpu time    0.1448: real time    0.1453
    SETDIJ:  cpu time    0.2974: real time    0.2981
    TRIAL :  cpu time   10.8368: real time   10.8684
    CORREC:  cpu time    0.0003: real time    0.0003
    CHARGE:  cpu time    0.0477: real time    0.0478
    --------------------------------------------
      LOOP:  cpu time   11.3273: real time   11.3602

 eigenvalue-minimisations  :     0
 total energy-change (2. order) :-0.6413042E-02  (-0.4451667E-02)
 number of electron     512.0000268 magnetization      -0.0000000
 augmentation part      -11.2977876 magnetization      -0.0000138

 Free energy of the ion-electron system (eV)
  ---------------------------------------------------
  alpha Z        PSCENC =      1815.09530317
  Ewald energy   TEWEN  =    -18380.23869508
  -Hartree energ DENC   =     -5008.86055197
  -exchange      EXHF   =      1371.43472326
  -V(xc)+E(xc)   XCENC  =        25.72704131
  PAW double counting   =     72441.45432487   -71364.22563136
  entropy T*S    EENTRO =        -0.00000000
  eigenvalues    EBANDS =     -2309.93101599
  atomic energy  EATOM  =     20421.03502778
  ---------------------------------------------------
  free energy    TOTEN  =      -988.50947401 eV

  energy without entropy =     -988.50947401  energy(sigma->0) =     -988.50947401
  exchange ACFDT corr.  =         0.00000000  see jH, gK, PRB 81, 115126


--------------------------------------------------------------------------------------------------------




--------------------------------------- Iteration      1(  13)  ---------------------------------------


    POTLOK:  cpu time    0.1452: real time    0.1537
    SETDIJ:  cpu time    0.2951: real time    0.2975
    TRIAL :  cpu time   10.8259: real time   10.8553
    CORREC:  cpu time    0.0002: real time    0.0002
    CHARGE:  cpu time    0.0474: real time    0.0477
    --------------------------------------------
      LOOP:  cpu time   11.3142: real time   11.3585

 eigenvalue-minimisations  :     0
 total energy-change (2. order) :-0.3371491E-02  (-0.2319573E-02)
 number of electron     512.0000268 magnetization      -0.0000000
 augmentation part      -11.2973730 magnetization      -0.0000209

 Free energy of the ion-electron system (eV)
  ---------------------------------------------------
  alpha Z        PSCENC =      1815.09530317
  Ewald energy   TEWEN  =    -18380.23869508
  -Hartree energ DENC   =     -5008.95906925
  -exchange      EXHF   =      1371.44303044
  -V(xc)+E(xc)   XCENC  =        25.73222079
  PAW double counting   =     72440.80858199   -71363.57995531
  entropy T*S    EENTRO =        -0.00000000
  eigenvalues    EBANDS =     -2309.84929004
  atomic energy  EATOM  =     20421.03502778
  ---------------------------------------------------
  free energy    TOTEN  =      -988.51284550 eV

  energy without entropy =     -988.51284550  energy(sigma->0) =     -988.51284550
  exchange ACFDT corr.  =         0.00000000  see jH, gK, PRB 81, 115126


--------------------------------------------------------------------------------------------------------




--------------------------------------- Iteration      1(  14)  ---------------------------------------


    POTLOK:  cpu time    0.1451: real time    0.1455
    SETDIJ:  cpu time    0.2974: real time    0.2981
    TRIAL :  cpu time   10.7952: real time   10.8248
    CORREC:  cpu time    0.0003: real time    0.0003
    CHARGE:  cpu time    0.0475: real time    0.0476
    --------------------------------------------
      LOOP:  cpu time   11.2858: real time   11.3166

 eigenvalue-minimisations  :     0
 total energy-change (2. order) :-0.1732149E-02  (-0.1127381E-02)
 number of electron     512.0000268 magnetization      -0.0000000
 augmentation part      -11.2971326 magnetization      -0.0000223

 Free energy of the ion-electron system (eV)
  ---------------------------------------------------
  alpha Z        PSCENC =      1815.09530317
  Ewald energy   TEWEN  =    -18380.23869508
  -Hartree energ DENC   =     -5009.02531088
  -exchange      EXHF   =      1371.44919053
  -V(xc)+E(xc)   XCENC  =        25.73626851
  PAW double counting   =     72440.13197498   -71362.90335964
  entropy T*S    EENTRO =        -0.00000000
  eigenvalues    EBANDS =     -2309.79497702
  atomic energy  EATOM  =     20421.03502778
  ---------------------------------------------------
  free energy    TOTEN  =      -988.51457765 eV

  energy without entropy =     -988.51457765  energy(sigma->0) =     -988.51457765
  exchange ACFDT corr.  =         0.00000000  see jH, gK, PRB 81, 115126


--------------------------------------------------------------------------------------------------------




--------------------------------------- Iteration      1(  15)  ---------------------------------------


    POTLOK:  cpu time    0.1496: real time    0.1501
    SETDIJ:  cpu time    0.2965: real time    0.2972
    TRIAL :  cpu time   10.8356: real time   10.8680
    CORREC:  cpu time    0.0002: real time    0.0002
    CHARGE:  cpu time    0.0479: real time    0.0480
    --------------------------------------------
      LOOP:  cpu time   11.3302: real time   11.3638

 eigenvalue-minimisations  :     0
 total energy-change (2. order) :-0.8175349E-03  (-0.5382013E-03)
 number of electron     512.0000268 magnetization      -0.0000000
 augmentation part      -11.2970497 magnetization      -0.0000202

 Free energy of the ion-electron system (eV)
  ---------------------------------------------------
  alpha Z        PSCENC =      1815.09530317
  Ewald energy   TEWEN  =    -18380.23869508
  -Hartree energ DENC   =     -5009.04852657
  -exchange      EXHF   =      1371.45193255
  -V(xc)+E(xc)   XCENC  =        25.73808786
  PAW double counting   =     72439.58428893   -71362.35564986
  entropy T*S    EENTRO =        -0.00000000
  eigenvalues    EBANDS =     -2309.77716396
  atomic energy  EATOM  =     20421.03502778
  ---------------------------------------------------
  free energy    TOTEN  =      -988.51539519 eV

  energy without entropy =     -988.51539519  energy(sigma->0) =     -988.51539519
  exchange ACFDT corr.  =         0.00000000  see jH, gK, PRB 81, 115126


--------------------------------------------------------------------------------------------------------




--------------------------------------- Iteration      1(  16)  ---------------------------------------


    POTLOK:  cpu time    0.1470: real time    0.1519
    SETDIJ:  cpu time    0.2985: real time    0.2998
    TRIAL :  cpu time   10.8488: real time   10.8790
    CORREC:  cpu time    0.0002: real time    0.0002
    CHARGE:  cpu time    0.0473: real time    0.0475
    --------------------------------------------
      LOOP:  cpu time   11.3424: real time   11.3829

 eigenvalue-minimisations  :     0
 total energy-change (2. order) :-0.3972259E-03  (-0.3127369E-03)
 number of electron     512.0000268 magnetization      -0.0000000
 augmentation part      -11.2970507 magnetization      -0.0000170

 Free energy of the ion-electron system (eV)
  ---------------------------------------------------
  alpha Z        PSCENC =      1815.09530317
  Ewald energy   TEWEN  =    -18380.23869508
  -Hartree energ DENC   =     -5009.04091116
  -exchange      EXHF   =      1371.45192671
  -V(xc)+E(xc)   XCENC  =        25.73801842
  PAW double counting   =     72439.20463845   -71361.97601165
  entropy T*S    EENTRO =        -0.00000000
  eigenvalues    EBANDS =     -2309.78508905
  atomic energy  EATOM  =     20421.03502778
  ---------------------------------------------------
  free energy    TOTEN  =      -988.51579241 eV

  energy without entropy =     -988.51579241  energy(sigma->0) =     -988.51579241
  exchange ACFDT corr.  =         0.00000000  see jH, gK, PRB 81, 115126


--------------------------------------------------------------------------------------------------------




--------------------------------------- Iteration      1(  17)  ---------------------------------------


    POTLOK:  cpu time    0.1471: real time    0.1475
    SETDIJ:  cpu time    0.2966: real time    0.2973
    TRIAL :  cpu time   10.8626: real time   10.8985
    CORREC:  cpu time    0.0002: real time    0.0002
    CHARGE:  cpu time    0.0481: real time    0.0482
    --------------------------------------------
      LOOP:  cpu time   11.3549: real time   11.3958

 eigenvalue-minimisations  :     0
 total energy-change (2. order) :-0.2468387E-03  (-0.2110001E-03)
 number of electron     512.0000268 magnetization      -0.0000000
 augmentation part      -11.2970627 magnetization      -0.0000138

 Free energy of the ion-electron system (eV)
  ---------------------------------------------------
  alpha Z        PSCENC =      1815.09530317
  Ewald energy   TEWEN  =    -18380.23869508
  -Hartree energ DENC   =     -5009.02230695
  -exchange      EXHF   =      1371.45066809
  -V(xc)+E(xc)   XCENC  =        25.73706363
  PAW double counting   =     72438.95970319   -71361.73112716
  entropy T*S    EENTRO =        -0.00000000
  eigenvalues    EBANDS =     -2309.80167592
  atomic energy  EATOM  =     20421.03502778
[...]
    5.315676    4.936741    4.640807    4.275385    0.000000    0.003463    0.000000
    5.670055    5.651166    5.328448    4.927124    0.000000    0.005389    0.000000
    6.024433    6.780777    6.466798    6.088974    0.000000    0.013710    0.000000
    6.378811    9.398112    9.047170    5.369740    0.000000   -0.046114    0.000000
    6.733190    1.824348    1.962029    5.209859    0.000000   -0.006390    0.000000
    7.087568    5.384658    5.106837    3.436227    0.000000    0.004451    0.000000
    7.441947    4.400507    3.547259    5.557284    0.000000    0.007764    0.000000
    7.796325    8.539118    7.270031    8.218642    0.000000    0.022365    0.000000
    8.150703   10.899436    7.742543    3.800898    0.000000   -0.074352    0.000000
    8.505082   -3.550827    0.467227    3.900649    0.000000   -0.058367    0.000000
    8.859460   -0.026532    3.036518    8.188054    0.000000    0.052730    0.000000
    9.213839    2.851188    3.795166   11.279315    0.000000   -0.071587    0.000000
    9.568217    4.159648    3.291486   -3.753755    0.000000    0.041128    0.000000
    9.922596   -2.840816   -3.417682   -8.961288    0.000000   -0.013251    0.000000
   10.276974   -3.560953   -1.750794   -3.494024    0.000000   -0.031134    0.000000
   10.631352    0.201270   -0.433308   -1.330232    0.000000    0.001251    0.000000
   10.985731    2.600945    1.766198    0.516077    0.000000    0.001287    0.000000
   11.340109   -1.545210    3.262222    0.767969    0.000000    0.018317    0.000000
   11.694488    1.978231   -0.222228    2.605228    0.000000    0.050380    0.000000
   12.048866   -4.435987   -5.468276   -5.521220    0.000000   -0.001527    0.000000
   12.403244   -1.586326   -1.830560   -2.363820    0.000000    0.006847    0.000000
   12.757623   -2.511869   -3.201081   -1.535044    0.000000    0.003526    0.000000
   13.112001   -2.168654   -1.995170   -1.767943    0.000000   -0.015517    0.000000
   13.466380   -1.866685   -2.263924   -1.163945    0.000000    0.018773    0.000000
   13.820758   -1.593858   -1.902375   -2.496059    0.000000   -0.018998    0.000000
   14.175136   -1.910188   -1.115598   -1.645603    0.000000    0.005825    0.000000
   14.529515   -1.523700   -0.691438   -1.049777    0.000000    0.010188    0.000000
   14.883893   -0.979043   -1.222154   -2.140603    0.000000   -0.004582    0.000000
   15.238272   -0.738677   -1.551636   -1.442177    0.000000   -0.005234    0.000000
   15.592650   -1.226791   -0.840577   -1.183340    0.000000   -0.000615    0.000000
   15.947029   -1.409951   -1.427095   -1.098401    0.000000    0.002277    0.000000
   16.301407   -0.755483   -0.870961   -0.764622    0.000000   -0.001365    0.000000
   16.655785   -0.880016   -1.187092   -0.685562    0.000000   -0.003073    0.000000
   17.010164   -0.811973   -0.772389   -0.506623    0.000000   -0.001966    0.000000
   17.364542   -0.541842   -0.603568   -0.515585    0.000000    0.000993    0.000000
   17.718921   -0.534475   -0.463671   -0.357775    0.000000    0.002307    0.000000
   18.073299   -0.377206   -0.337616   -0.249697    0.000000    0.000469    0.000000
   18.427677   -0.263145   -0.236862   -0.161532    0.000000    0.000462    0.000000
   18.782056   -0.170085   -0.147363   -0.080908    0.000000    0.000296    0.000000
   19.136434   -0.092111   -0.071564   -0.012545    0.000000    0.000231    0.000000
   19.490813   -0.024388   -0.005267    0.047558    0.000000    0.000179    0.000000
   19.845191    0.035659    0.053749    0.101166    0.000000    0.000137    0.000000
   20.199569    0.089817    0.107123    0.149599    0.000000    0.000104    0.000000
   20.553948    0.139639    0.156509    0.193855    0.000000    0.000075    0.000000
   20.908326    0.187494    0.202921    0.234840    0.000000    0.000025    0.000000
   21.262705    0.216559    0.231544    0.272419    0.000000    0.000047    0.000000
   21.617083    0.258949    0.272884    0.304637    0.000000    0.000025    0.000000
   21.971462    0.297220    0.311829    0.335808    0.000000    0.000020    0.000000
   22.325840    0.325913    0.339917    0.370489    0.000000    0.000068    0.000000
   22.680218    0.353684    0.367923    0.401504    0.000000   -0.000261    0.000000
   23.034597    0.368030    0.384640    0.404410    0.000000    0.000099    0.000000
   23.388975    0.403152    0.410396    0.425971    0.000000   -0.000062    0.000000
   23.743354    0.425925    0.439757    0.450448    0.000000   -0.000023    0.000000
   24.097732    0.468941    0.463893    0.475828    0.000000   -0.000072    0.000000
   24.452110    0.447201    0.465416    0.493864    0.000000   -0.000070    0.000000
   24.806489    0.461049    0.488274    0.513378    0.000000   -0.000181    0.000000
   25.160867    0.484022    0.506435    0.523529    0.000000   -0.000061    0.000000
   25.515246    0.505206    0.520398    0.541803    0.000000   -0.000276    0.000000
   25.869624    0.531147    0.530492    0.549721    0.000000   -0.000192    0.000000
   26.224002    0.543745    0.540696    0.565945    0.000000    0.000142    0.000000
   26.578381    0.533662    0.546313    0.582853    0.000000    0.000302    0.000000
   26.932759    0.557881    0.568352    0.591683    0.000000   -0.000119    0.000000
   27.287138    0.568305    0.581538    0.606544    0.000000    0.000330    0.000000
   27.641516    0.585841    0.595313    0.614830    0.000000    0.000180    0.000000
   27.995894    0.600338    0.609869    0.628408    0.000000    0.000137    0.000000
   28.350273    0.613402    0.622689    0.640298    0.000000    0.000099    0.000000
   28.704651    0.625445    0.634486    0.651254    0.000000    0.000081    0.000000
   29.059030    0.636716    0.645515    0.661535    0.000000    0.000068    0.000000
   29.413408    0.647325    0.655905    0.671259    0.000000    0.000059    0.000000
   29.767787    0.657365    0.665753    0.680496    0.000000    0.000052    0.000000
   30.122165    0.666939    0.675117    0.689296    0.000000    0.000046    0.000000
   30.476543    0.676056    0.684037    0.697697    0.000000    0.000041    0.000000
   30.830922    0.684756    0.692549    0.705727    0.000000    0.000037    0.000000
   31.185300    0.693072    0.700686    0.713415    0.000000    0.000034    0.000000
   31.539679    0.701032    0.708473    0.720781    0.000000    0.000031    0.000000
   31.894057    0.708659    0.715934    0.727848    0.000000    0.000029    0.000000
   32.248435    0.715976    0.723090    0.734632    0.000000    0.000027    0.000000
   32.602814    0.723000    0.729959    0.741150    0.000000    0.000025    0.000000
   32.957192    0.729749    0.736558    0.747417    0.000000    0.000023    0.000000
   33.311571    0.736238    0.742903    0.753448    0.000000    0.000021    0.000000
   33.665949    0.742483    0.749008    0.759254    0.000000    0.000020    0.000000
   34.020327    0.748496    0.754886    0.764847    0.000000    0.000019    0.000000
   34.374706    0.754290    0.760548    0.770239    0.000000    0.000018    0.000000
   34.729084    0.759876    0.766007    0.775439    0.000000    0.000017    0.000000
   35.083463    0.765264    0.771272    0.780457    0.000000    0.000016    0.000000
 
 The outermost node in the dielectric function lies at epsilon=  19.5


--------------------------------------------------------------------------------------------------------


    OPTICS:  cpu time    0.6554: real time    0.6572
    4ORBIT:  cpu time    0.0000: real time    0.0000
 


 total charge     
 
# of ion       s       p       d       tot
------------------------------------------
    1        1.043   1.481   0.419   2.943
    2        1.044   1.474   0.414   2.932
    3        1.048   1.508   0.431   2.987
    4        1.044   1.486   0.421   2.951
    5        1.046   1.501   0.429   2.977
    6        1.050   1.517   0.436   3.003
    7        1.051   1.520   0.437   3.009
    8        1.051   1.520   0.438   3.009
    9        1.050   1.514   0.434   2.997
   10        1.052   1.524   0.439   3.015
   11        1.048   1.508   0.431   2.987
   12        1.052   1.521   0.437   3.010
   13        1.050   1.514   0.434   2.998
   14        1.050   1.515   0.434   3.000
   15        1.051   1.520   0.437   3.008
   16        1.050   1.515   0.434   2.999
   17        1.048   1.507   0.431   2.986
   18        1.047   1.500   0.427   2.974
   19        1.049   1.511   0.433   2.992
   20        1.047   1.505   0.430   2.982
   21        1.050   1.514   0.435   2.998
   22        1.049   1.511   0.433   2.993
   23        1.049   1.512   0.433   2.994
   24        1.049   1.511   0.433   2.993
   25        1.050   1.514   0.434   2.997
   26        1.050   1.514   0.434   2.998
   27        1.049   1.512   0.433   2.994
   28        1.052   1.522   0.438   3.012
   29        1.050   1.516   0.435   3.000
   30        1.050   1.513   0.434   2.997
   31        1.049   1.512   0.433   2.994
   32        1.050   1.514   0.434   2.999
   33        1.049   1.511   0.433   2.993
   34        1.047   1.500   0.427   2.974
   35        1.049   1.511   0.433   2.992
   36        1.050   1.513   0.434   2.996
   37        1.049   1.510   0.432   2.992
   38        1.049   1.511   0.433   2.993
   39        1.049   1.512   0.433   2.994
   40        1.049   1.512   0.433   2.995
   41        1.049   1.511   0.433   2.993
   42        1.050   1.514   0.434   2.998
   43        1.049   1.512   0.433   2.994
   44        1.049   1.511   0.432   2.992
   45        1.049   1.512   0.433   2.994
   46        1.050   1.513   0.434   2.997
   47        1.049   1.512   0.433   2.994
   48        1.049   1.512   0.433   2.994
   49        1.048   1.507   0.431   2.986
   50        1.044   1.474   0.414   2.932
   51        1.048   1.508   0.431   2.987
   52        1.047   1.505   0.430   2.982
   53        1.050   1.514   0.435   2.998
   54        1.050   1.517   0.436   3.003
   55        1.051   1.520   0.437   3.009
   56        1.049   1.511   0.433   2.993
   57        1.050   1.514   0.434   2.997
   58        1.052   1.524   0.439   3.015
   59        1.048   1.508   0.431   2.987
   60        1.052   1.522   0.438   3.012
   61        1.050   1.516   0.435   3.000
   62        1.050   1.515   0.434   3.000
   63        1.051   1.520   0.437   3.008
   64        1.050   1.514   0.434   2.999
   65        1.232   2.485   0.000   3.717
   66        1.232   2.486   0.000   3.718
   67        1.232   2.486   0.000   3.718
   68        1.232   2.482   0.000   3.714
   69        1.232   2.485   0.000   3.718
   70        1.232   2.486   0.000   3.718
   71        1.232   2.484   0.000   3.716
   72        1.232   2.487   0.000   3.719
   73        1.232   2.484   0.000   3.716
   74        1.232   2.486   0.000   3.718
   75        1.232   2.484   0.000   3.716
   76        1.232   2.484   0.000   3.715
   77        1.232   2.484   0.000   3.716
   78        1.232   2.486   0.000   3.718
   79        1.232   2.484   0.000   3.715
   80        1.232   2.469   0.000   3.701
   81        1.232   2.482   0.000   3.714
   82        1.232   2.482   0.000   3.714
   83        1.232   2.482   0.000   3.714
   84        1.232   2.485   0.000   3.717
   85        1.232   2.483   0.000   3.715
   86        1.232   2.483   0.000   3.715
   87        1.232   2.483   0.000   3.715
   88        1.232   2.488   0.000   3.719
   89        1.232   2.483   0.000   3.715
   90        1.232   2.484   0.000   3.716
   91        1.232   2.484   0.000   3.716
   92        1.232   2.484   0.000   3.716
   93        1.232   2.483   0.000   3.715
   94        1.232   2.483   0.000   3.715
   95        1.232   2.484   0.000   3.716
   96        1.232   2.478   0.000   3.710
   97        1.232   2.482   0.000   3.714
   98        1.232   2.482   0.000   3.714
   99        1.232   2.483   0.000   3.715
  100        1.232   2.483   0.000   3.715
  101        1.232   2.483   0.000   3.715
  102        1.232   2.483   0.000   3.715
  103        1.232   2.483   0.000   3.715
  104        1.232   2.483   0.000   3.715
  105        1.232   2.483   0.000   3.715
  106        1.232   2.484   0.000   3.716
  107        1.232   2.483   0.000   3.715
  108        1.232   2.483   0.000   3.715
  109        1.232   2.483   0.000   3.715
  110        1.232   2.483   0.000   3.715
  111        1.232   2.483   0.000   3.715
  112        1.232   2.469   0.000   3.701
  113        1.232   2.485   0.000   3.717
  114        1.232   2.486   0.000   3.718
  115        1.232   2.482   0.000   3.714
  116        1.232   2.485   0.000   3.717
  117        1.232   2.485   0.000   3.718
  118        1.232   2.486   0.000   3.718
  119        1.232   2.483   0.000   3.715
  120        1.232   2.488   0.000   3.719
  121        1.232   2.484   0.000   3.716
  122        1.232   2.486   0.000   3.718
  123        1.232   2.484   0.000   3.716
  124        1.232   2.484   0.000   3.716
  125        1.232   2.484   0.000   3.716
  126        1.232   2.486   0.000   3.718
  127        1.232   2.484   0.000   3.716
  128        1.232   2.440   0.000   3.672
--------------------------------------------------
tot        145.992 255.593  27.680 429.265
 


 magnetization (x)
 
# of ion       s       p       d       tot
------------------------------------------
    1        0.000   0.000  -0.000   0.000
    2       -0.000  -0.000   0.000  -0.000
    3       -0.000  -0.000   0.000  -0.000
    4        0.000   0.000  -0.000   0.000
    5       -0.000  -0.000  -0.000  -0.000
    6        0.000   0.000  -0.000   0.000
    7        0.000   0.000  -0.000   0.000
    8       -0.000  -0.000   0.000  -0.000
    9       -0.000  -0.000   0.000  -0.000
   10       -0.000  -0.000  -0.000  -0.000
   11        0.000   0.000  -0.000   0.000
   12       -0.000  -0.000   0.000  -0.000
   13        0.000   0.000   0.000   0.000
   14       -0.000  -0.000   0.000  -0.000
   15       -0.000  -0.000   0.000  -0.000
   16       -0.000  -0.000  -0.000  -0.000
   17       -0.000  -0.000  -0.000  -0.000
   18        0.000   0.000  -0.000   0.000
   19       -0.000  -0.000  -0.000  -0.000
   20        0.000   0.000  -0.000   0.000
   21       -0.000  -0.000   0.000  -0.000
   22        0.000   0.000   0.000   0.000
   23        0.000   0.000  -0.000   0.000
   24        0.000  -0.000  -0.000  -0.000
   25        0.000   0.000  -0.000   0.000
   26       -0.000  -0.000  -0.000  -0.000
   27        0.000   0.000  -0.000   0.000
   28       -0.000  -0.000   0.000  -0.000
   29       -0.000  -0.000   0.000  -0.000
   30        0.000  -0.000  -0.000  -0.000
   31        0.000   0.000  -0.000   0.000
   32        0.000   0.000  -0.000   0.000
   33        0.000   0.000  -0.000   0.000
   34       -0.000  -0.000   0.000  -0.000
   35       -0.000  -0.000  -0.000  -0.000
   36       -0.000  -0.000   0.000  -0.000
   37       -0.000  -0.000   0.000  -0.000
   38        0.000   0.000  -0.000   0.000
   39        0.000   0.000   0.000   0.000
   40        0.000   0.000   0.000   0.000
   41       -0.000   0.000  -0.000  -0.000
   42       -0.000  -0.000   0.000  -0.000
   43       -0.000   0.000   0.000   0.000
   44        0.000   0.000  -0.000   0.000
   45       -0.000  -0.000   0.000  -0.000
   46        0.000   0.000  -0.000   0.000
   47       -0.000   0.000   0.000  -0.000
   48        0.000   0.000   0.000   0.000
   49       -0.000  -0.000  -0.000  -0.000
   50        0.000  -0.000   0.000   0.000
   51       -0.000  -0.000  -0.000  -0.000
   52       -0.000  -0.000   0.000  -0.000
   53        0.000   0.000  -0.000   0.000
   54        0.000   0.000  -0.000   0.000
   55       -0.000   0.000  -0.000  -0.000
   56       -0.000   0.000  -0.000  -0.000
   57       -0.000   0.000  -0.000   0.000
   58       -0.000  -0.000   0.000  -0.000
   59        0.000  -0.000   0.000   0.000
   60        0.000   0.000  -0.000   0.000
   61       -0.000  -0.000   0.000  -0.000
   62       -0.000  -0.000   0.000  -0.000
   63        0.000   0.000  -0.000   0.000
   64        0.000   0.000  -0.000   0.000
   65       -0.000  -0.000   0.000  -0.000
   66       -0.000  -0.000   0.000  -0.000
   67        0.000   0.000   0.000   0.000
   68       -0.000  -0.000   0.000  -0.000
   69        0.000   0.000   0.000   0.000
   70       -0.000  -0.000   0.000  -0.000
   71       -0.000  -0.000   0.000  -0.000
   72       -0.000  -0.000   0.000  -0.000
   73       -0.000  -0.000   0.000  -0.000
   74        0.000   0.000   0.000   0.000
   75        0.000   0.000   0.000   0.000
   76        0.000   0.000   0.000   0.000
   77       -0.000  -0.000   0.000  -0.000
   78        0.000   0.000   0.000   0.000
   79       -0.000  -0.000   0.000  -0.000
   80        0.000  -0.000   0.000  -0.000
   81       -0.000  -0.000   0.000  -0.000
   82        0.000   0.000   0.000   0.000
   83       -0.000  -0.000   0.000  -0.000
   84       -0.000  -0.000   0.000  -0.000
   85       -0.000   0.000   0.000  -0.000
   86       -0.000  -0.000   0.000  -0.000
   87        0.000  -0.000   0.000  -0.000
   88        0.000   0.000   0.000   0.000
   89        0.000  -0.000   0.000  -0.000
   90       -0.000  -0.000   0.000  -0.000
   91       -0.000  -0.000   0.000  -0.000
   92        0.000   0.000   0.000   0.000
   93        0.000   0.000   0.000   0.000
   94       -0.000  -0.000   0.000  -0.000
   95       -0.000  -0.000   0.000  -0.000
   96       -0.000  -0.000   0.000  -0.000
   97        0.000   0.000   0.000   0.000
   98        0.000   0.000   0.000   0.000
   99       -0.000  -0.000   0.000  -0.000
  100        0.000   0.000   0.000   0.000
  101        0.000   0.000   0.000   0.000
  102       -0.000  -0.000   0.000  -0.000
  103       -0.000  -0.000   0.000  -0.000
  104        0.000  -0.000   0.000  -0.000
  105       -0.000  -0.000   0.000  -0.000
  106       -0.000  -0.000   0.000  -0.000
  107        0.000   0.000   0.000   0.000
  108       -0.000  -0.000   0.000  -0.000
  109       -0.000  -0.000   0.000  -0.000
  110        0.000  -0.000   0.000   0.000
  111        0.000   0.000   0.000   0.000
  112        0.000   0.000   0.000   0.000
  113       -0.000  -0.000   0.000  -0.000
  114        0.000   0.000   0.000   0.000
  115        0.000   0.000   0.000   0.000
  116       -0.000  -0.000   0.000  -0.000
  117       -0.000  -0.000   0.000  -0.000
  118       -0.000  -0.000   0.000  -0.000
  119       -0.000  -0.000   0.000  -0.000
  120       -0.000  -0.000   0.000  -0.000
  121       -0.000   0.000   0.000   0.000
  122       -0.000  -0.000   0.000  -0.000
  123       -0.000  -0.000   0.000  -0.000
  124        0.000   0.000   0.000   0.000
  125        0.000   0.000   0.000   0.000
  126       -0.000  -0.000   0.000  -0.000
  127       -0.000  -0.000   0.000  -0.000
  128       -0.000  -0.000   0.000  -0.000
--------------------------------------------------
tot          0.000   0.000  -0.000   0.000
 

 total amount of memory used by VASP MPI-rank0    47867. kBytes
=======================================================================

   base      :      30000. kBytes
   nonl-proj :       2526. kBytes
   fftplans  :       2292. kBytes
   grid      :       6100. kBytes
   one-center:         89. kBytes
   HF        :         67. kBytes
   nonlr-proj:       1243. kBytes
   wavefun   :       5550. kBytes
 
  
  
 General timing and accounting informations for this job:
 ========================================================
  
                  Total CPU time used (sec):      445.292
                            User time (sec):      411.103
                          System time (sec):       34.189
                         Elapsed time (sec):      450.835
  
                   Maximum memory used (kb):      548036.
                   Average memory used (kb):           0.
  
                          Minor page faults:       159402
                          Major page faults:            0
                 Voluntary context switches:         2855
