  128  128    1    2
  0.1142551E+02  0.1276578E-08  0.1105549E-08  0.1036240E-08  0.5000000E-15
  1.000000000000000E-004
  CAR 
 GaN                                     
    512      1    392
 
  0.0000000E+00  0.0000000E+00  0.0000000E+00  0.1000000E+01
    1      -15.884738    -15.884296   1.000000   1.000000
    2      -15.222445    -15.221930   1.000000   1.000000
    3      -15.196190    -15.195673   1.000000   1.000000
    4      -15.012661    -15.012121   1.000000   1.000000
    5      -14.988699    -14.988159   1.000000   1.000000
    6      -14.888068    -14.887499   1.000000   1.000000
    7      -14.851263    -14.850713   1.000000   1.000000
    8      -14.429219    -14.428599   1.000000   1.000000
    9      -14.419843    -14.419213   1.000000   1.000000
   10      -14.408003    -14.407377   1.000000   1.000000
   11      -14.373237    -14.372627   1.000000   1.000000
   12      -14.298481    -14.297829   1.000000   1.000000
   13      -14.283438    -14.282809   1.000000   1.000000
   14      -14.280441    -14.279784   1.000000   1.000000
   15      -14.235699    -14.235063   1.000000   1.000000
   16      -14.122344    -14.121669   1.000000   1.000000
   17      -14.106541    -14.105882   1.000000   1.000000
   18      -14.100695    -14.100008   1.000000   1.000000
   19      -14.022660    -14.021996   1.000000   1.000000
   20      -13.651125    -13.650369   1.000000   1.000000
   21      -13.640290    -13.639542   1.000000   1.000000
   22      -13.637877    -13.637096   1.000000   1.000000
   23      -13.633144    -13.632400   1.000000   1.000000
   24      -13.630587    -13.629822   1.000000   1.000000
   25      -13.629821    -13.629064   1.000000   1.000000
   26      -13.607939    -13.607195   1.000000   1.000000
   27      -13.605719    -13.604969   1.000000   1.000000
   28      -13.597698    -13.596917   1.000000   1.000000
   29      -13.544298    -13.543580   1.000000   1.000000
   30      -13.484529    -13.483710   1.000000   1.000000
   31      -13.472348    -13.471528   1.000000   1.000000
   32      -13.388417    -13.387583   1.000000   1.000000
   33      -13.326918    -13.326106   1.000000   1.000000
   34      -13.112503    -13.111620   1.000000   1.000000
   35      -13.110452    -13.109595   1.000000   1.000000
   36      -13.098884    -13.097996   1.000000   1.000000
   37      -13.067159    -13.066293   1.000000   1.000000
   38      -13.059679    -13.058814   1.000000   1.000000
   39      -13.053498    -13.052596   1.000000   1.000000
   40      -13.052225    -13.051309   1.000000   1.000000
   41      -13.021200    -13.020324   1.000000   1.000000
   42      -13.020351    -13.019459   1.000000   1.000000
   43      -13.003032    -13.002161   1.000000   1.000000
   44      -12.991462    -12.990495   1.000000   1.000000
   45      -12.951211    -12.950309   1.000000   1.000000
   46      -12.951178    -12.950265   1.000000   1.000000
   47      -12.893640    -12.892748   1.000000   1.000000
   48      -12.854936    -12.854003   1.000000   1.000000
   49      -12.828998    -12.828071   1.000000   1.000000
   50      -12.796534    -12.795595   1.000000   1.000000
   51      -12.792308    -12.791359   1.000000   1.000000
   52      -12.765625    -12.764653   1.000000   1.000000
   53      -12.680782    -12.679845   1.000000   1.000000
   54      -12.655470    -12.654489   1.000000   1.000000
   55      -12.652231    -12.651335   1.000000   1.000000
   56      -12.637600    -12.636658   1.000000   1.000000
   57      -12.634083    -12.633123   1.000000   1.000000
   58      -12.593750    -12.592756   1.000000   1.000000
   59      -12.581333    -12.580342   1.000000   1.000000
   60      -12.556861    -12.555855   1.000000   1.000000
   61      -12.535146    -12.534174   1.000000   1.000000
   62      -12.472181    -12.471192   1.000000   1.000000
   63      -12.445008    -12.443983   1.000000   1.000000
   64       -8.633402     -8.632925   1.000000   1.000000
   65       -5.707843     -5.707946   1.000000   1.000000
   66       -5.300036     -5.300065   1.000000   1.000000
   67       -5.295208     -5.295240   1.000000   1.000000
   68       -5.292350     -5.292377   1.000000   1.000000
   69       -5.282882     -5.282908   1.000000   1.000000
   70       -5.276333     -5.276360   1.000000   1.000000
   71       -5.274188     -5.274215   1.000000   1.000000
   72       -5.102445     -5.102446   1.000000   1.000000
   73       -5.096537     -5.096539   1.000000   1.000000
   74       -5.093850     -5.093850   1.000000   1.000000
   75       -5.013701     -5.013735   1.000000   1.000000
   76       -4.986580     -4.986614   1.000000   1.000000
   77       -4.858672     -4.858660   1.000000   1.000000
   78       -4.848802     -4.848787   1.000000   1.000000
   79       -4.827106     -4.827099   1.000000   1.000000
   80       -4.817182     -4.817193   1.000000   1.000000
   81       -4.789922     -4.789915   1.000000   1.000000
   82       -4.771298     -4.771304   1.000000   1.000000
   83       -4.584829     -4.584740   1.000000   1.000000
   84       -4.560863     -4.560778   1.000000   1.000000
   85       -4.551786     -4.551703   1.000000   1.000000
   86       -4.537338     -4.537260   1.000000   1.000000
   87       -4.390998     -4.390961   1.000000   1.000000
   88       -4.388619     -4.388580   1.000000   1.000000
   89       -4.371530     -4.371490   1.000000   1.000000
   90       -4.346726     -4.346672   1.000000   1.000000
   91       -4.329845     -4.329806   1.000000   1.000000
   92       -4.266483     -4.266416   1.000000   1.000000
   93       -4.170851     -4.170788   1.000000   1.000000
   94       -4.155579     -4.155522   1.000000   1.000000
   95       -3.922489     -3.922270   1.000000   1.000000
   96       -3.922243     -3.922025   1.000000   1.000000
   97       -3.920001     -3.919785   1.000000   1.000000
   98       -3.915534     -3.915317   1.000000   1.000000
   99       -3.889237     -3.889041   1.000000   1.000000
  100       -3.882653     -3.882457   1.000000   1.000000
  101       -3.880764     -3.880561   1.000000   1.000000
  102       -3.849261     -3.849050   1.000000   1.000000
  103       -3.831223     -3.831013   1.000000   1.000000
  104       -3.791998     -3.791789   1.000000   1.000000
  105       -3.788620     -3.788409   1.000000   1.000000
  106       -3.685278     -3.685062   1.000000   1.000000
  107       -3.661072     -3.660836   1.000000   1.000000
  108       -3.619465     -3.619271   1.000000   1.000000
  109       -3.541484     -3.541283   1.000000   1.000000
  110       -3.231172     -3.230972   1.000000   1.000000
  111       -3.223995     -3.223795   1.000000   1.000000
  112       -3.135810     -3.135483   1.000000   1.000000
  113       -3.132141     -3.131858   1.000000   1.000000
  114       -3.127131     -3.126837   1.000000   1.000000
  115       -3.114867     -3.114568   1.000000   1.000000
  116       -3.107264     -3.106939   1.000000   1.000000
  117       -3.089927     -3.089619   1.000000   1.000000
  118       -3.070942     -3.070674   1.000000   1.000000
  119       -3.023432     -3.023109   1.000000   1.000000
  120       -2.769440     -2.769053   1.000000   1.000000
  121       -2.748752     -2.748378   1.000000   1.000000
  122       -2.739421     -2.739039   1.000000   1.000000
  123       -2.685844     -2.685465   1.000000   1.000000
  124       -2.627543     -2.627168   1.000000   1.000000
  125       -2.622836     -2.622490   1.000000   1.000000
  126       -2.600632     -2.600288   1.000000   1.000000
  127       -2.494788     -2.494422   1.000000   1.000000
  128       -2.482160     -2.481762   1.000000   1.000000
  129       -2.473179     -2.472820   1.000000   1.000000
  130       -2.442933     -2.442578   1.000000   1.000000
  131       -2.415856     -2.415415   1.000000   1.000000
  132       -2.408819     -2.408395   1.000000   1.000000
  133       -2.360457     -2.360089   1.000000   1.000000
  134       -2.341633     -2.341284   1.000000   1.000000
  135       -2.340696     -2.340338   1.000000   1.000000
  136       -2.331774     -2.331451   1.000000   1.000000
  137       -2.325271     -2.324876   1.000000   1.000000
  138       -2.293545     -2.293189   1.000000   1.000000
  139       -2.271843     -2.271514   1.000000   1.000000
  140       -2.237437     -2.237032   1.000000   1.000000
  141       -2.213140     -2.212736   1.000000   1.000000
  142       -2.093670     -2.093238   1.000000   1.000000
  143       -1.777856     -1.777424   1.000000   1.000000
  144       -1.773685     -1.773214   1.000000   1.000000
  145       -1.764212     -1.763738   1.000000   1.000000
  146       -1.749846     -1.749416   1.000000   1.000000
  147       -1.709805     -1.709336   1.000000   1.000000
  148       -1.700124     -1.699685   1.000000   1.000000
  149       -1.591981     -1.591505   1.000000   1.000000
  150       -1.591129     -1.590648   1.000000   1.000000
  151       -1.198931     -1.198326   1.000000   1.000000
  152       -1.180622     -1.179988   1.000000   1.000000
  153       -1.103958     -1.103313   1.000000   1.000000
  154       -1.090893     -1.090264   1.000000   1.000000
  155       -1.072046     -1.071422   1.000000   1.000000
  156       -1.041636     -1.041012   1.000000   1.000000
  157       -1.033985     -1.033384   1.000000   1.000000
  158       -1.023477     -1.022867   1.000000   1.000000
  159       -0.992438     -0.991818   1.000000   1.000000
  160       -0.948555     -0.947954   1.000000   1.000000
  161       -0.888823     -0.888232   1.000000   1.000000
  162       -0.886610     -0.886004   1.000000   1.000000
  163       -0.862526     -0.861915   1.000000   1.000000
  164       -0.782682     -0.782007   1.000000   1.000000
  165       -0.774905     -0.774240   1.000000   1.000000
  166       -0.598758     -0.598052   1.000000   1.000000
  167       -0.593901     -0.593194   1.000000   1.000000
  168       -0.586987     -0.586302   1.000000   1.000000
  169       -0.584546     -0.583845   1.000000   1.000000
  170       -0.575355     -0.574646   1.000000   1.000000
  171       -0.570001     -0.569314   1.000000   1.000000
  172       -0.544543     -0.543847   1.000000   1.000000
  173       -0.541138     -0.540461   1.000000   1.000000
  174       -0.432957     -0.432306   1.000000   1.000000
  175       -0.430655     -0.430015   1.000000   1.000000
  176       -0.402118     -0.401487   1.000000   1.000000
  177       -0.364818     -0.364074   1.000000   1.000000
  178       -0.358357     -0.357633   1.000000   1.000000
  179       -0.321669     -0.320939   1.000000   1.000000
  180       -0.312995     -0.312251   1.000000   1.000000
  181       -0.309256     -0.308530   1.000000   1.000000
  182       -0.302242     -0.301511   1.000000   1.000000
  183       -0.262983     -0.262210   1.000000   1.000000
  184       -0.248918     -0.248164   1.000000   1.000000
  185       -0.204720     -0.203915   1.000000   1.000000
  186       -0.200886     -0.200057   1.000000   1.000000
  187       -0.198317     -0.197506   1.000000   1.000000
  188       -0.189713     -0.188919   1.000000   1.000000
  189       -0.154608     -0.153865   1.000000   1.000000
  190       -0.149610     -0.148830   1.000000   1.000000
  191       -0.146704     -0.145918   1.000000   1.000000
  192       -0.140407     -0.139600   1.000000   1.000000
  193       -0.125255     -0.124448   1.000000   1.000000
  194       -0.121472     -0.120693   1.000000   1.000000
  195       -0.119722     -0.118877   1.000000   1.000000
  196       -0.117322     -0.116525   1.000000   1.000000
  197       -0.110866     -0.110062   1.000000   1.000000
  198       -0.105132     -0.104320   1.000000   1.000000
  199       -0.101288     -0.100454   1.000000   1.000000
  200       -0.096849     -0.096038   1.000000   1.000000
  201       -0.069238     -0.068453   1.000000   1.000000
  202       -0.066070     -0.065288   1.000000   1.000000
  203        0.000675      0.001473   1.000000   1.000000
  204        0.005815      0.006623   1.000000   1.000000
  205        0.009423      0.010222   1.000000   1.000000
  206        0.027080      0.027877   1.000000   1.000000
  207        0.044956      0.045764   1.000000   1.000000
  208        0.069730      0.070540   1.000000   1.000000
  209        0.073833      0.074662   1.000000   1.000000
  210        0.087571      0.088420   1.000000   1.000000
  211        0.100039      0.100846   1.000000   1.000000
  212        0.188539      0.189429   1.000000   1.000000
  213        0.189376      0.190207   1.000000   1.000000
  214        0.207848      0.208724   1.000000   1.000000
  215        0.225925      0.226838   1.000000   1.000000
  216        0.246676      0.247583   1.000000   1.000000
  217        0.348332      0.349276   1.000000   1.000000
  218        0.404811      0.405711   1.000000   1.000000
  219        0.414160      0.415103   1.000000   1.000000
  220        0.475776      0.476697   1.000000   1.000000
  221        0.483042      0.483962   1.000000   1.000000
  222        0.487856      0.488733   1.000000   1.000000
  223        0.494376      0.495294   1.000000   1.000000
  224        0.521596      0.522498   1.000000   1.000000
  225        0.528980      0.529847   1.000000   1.000000
  226        0.582758      0.583650   1.000000   1.000000
  227        0.602563      0.603454   1.000000   1.000000
  228        0.602826      0.603721   1.000000   1.000000
  229        0.657605      0.658553   1.000000   1.000000
  230        0.666367      0.667318   1.000000   1.000000
  231        0.670163      0.671118   1.000000   1.000000
  232        0.680191      0.681142   1.000000   1.000000
  233        0.683531      0.684477   1.000000   1.000000
  234        0.704251      0.705209   1.000000   1.000000
  235        0.711872      0.712806   1.000000   1.000000
  236        0.815611      0.816643   1.000000   1.000000
  237        0.816049      0.817032   1.000000   1.000000
  238        0.859101      0.860131   1.000000   1.000000
  239        0.980731      0.981651   1.000000   1.000000
  240        1.053874      1.054867   1.000000   1.000000
  241        1.071826      1.072816   1.000000   1.000000
  242        1.203514      1.204595   1.000000   1.000000
  243        1.290843      1.291931   1.000000   1.000000
  244        1.309924      1.311014   1.000000   1.000000
  245        1.312180      1.313270   1.000000   1.000000
  246        1.336749      1.337868   1.000000   1.000000
  247        1.341049      1.342189   1.000000   1.000000
  248        1.364409      1.365479   1.000000   1.000000
  249        1.386266      1.387349   1.000000   1.000000
  250        1.411978      1.413102   1.000000   1.000000
  251        1.700911      1.701983   1.000000   1.000000
  252        1.719063      1.720153   1.000000   1.000000
  253        1.743151      1.744257   1.000000   1.000000
  254        2.258084      2.259051   1.000000   1.000000
  255        2.277175      2.278140   1.000000   1.000000
  256        2.292317      2.293298   1.000000   1.000000
  257        5.585386      5.585203   0.000000   0.000000
  258        7.818685      7.818817   0.000000   0.000000
  259        7.819346      7.819464   0.000000   0.000000
  260        7.977244      7.976777   0.000000   0.000000
  261        7.983425      7.982891   0.000000   0.000000
  262        7.985375      7.984933   0.000000   0.000000
  263        7.985647      7.985042   0.000000   0.000000
  264        7.993483      7.992885   0.000000   0.000000
  265        7.993981      7.993368   0.000000   0.000000
  266        8.006284      8.005923   0.000000   0.000000
  267        8.031734      8.031689   0.000000   0.000000
  268        8.047626      8.047501   0.000000   0.000000
  269        8.052749      8.052769   0.000000   0.000000
  270        8.212113      8.211912   0.000000   0.000000
  271        8.637481      8.636789   0.000000   0.000000
  272        8.638345      8.637661   0.000000   0.000000
  273        8.653446      8.652748   0.000000   0.000000
  274        8.790928      8.790178   0.000000   0.000000
  275        8.798126      8.797366   0.000000   0.000000
  276        8.968716      8.968490   0.000000   0.000000
  277        8.977325      8.977096   0.000000   0.000000
  278        8.987627      8.987404   0.000000   0.000000
  279        9.007299      9.007081   0.000000   0.000000
  280        9.113608      9.113633   0.000000   0.000000
  281        9.121135      9.120966   0.000000   0.000000
  282        9.130725      9.130755   0.000000   0.000000
  283        9.141125      9.140973   0.000000   0.000000
  284        9.144160      9.143913   0.000000   0.000000
  285        9.144652      9.144440   0.000000   0.000000
  286        9.151450      9.151186   0.000000   0.000000
  287        9.174449      9.174283   0.000000   0.000000
  288        9.186129      9.185576   0.000000   0.000000
  289        9.186227      9.185903   0.000000   0.000000
  290        9.219355      9.219202   0.000000   0.000000
  291        9.227932      9.227892   0.000000   0.000000
  292        9.296148      9.295874   0.000000   0.000000
  293        9.313800      9.313763   0.000000   0.000000
  294        9.317093      9.316700   0.000000   0.000000
  295        9.328288      9.328130   0.000000   0.000000
  296        9.332896      9.333026   0.000000   0.000000
  297        9.346979      9.346678   0.000000   0.000000
  298        9.363902      9.363141   0.000000   0.000000
  299        9.394961      9.397067   0.000000   0.000000
  300        9.516904      9.516440   0.000000   0.000000
  301        9.586390      9.584161   0.000000   0.000000
  302        9.605183      9.606278   0.000000   0.000000
  303        9.617329      9.612606   0.000000   0.000000
  304        9.694431      9.693616   0.000000   0.000000
  305        9.767463      9.771294   0.000000   0.000000
  306        9.788582      9.791332   0.000000   0.000000
  307        9.795038      9.810866   0.000000   0.000000
  308        9.813168      9.815529   0.000000   0.000000
  309        9.818104      9.822571   0.000000   0.000000
  310        9.834520      9.842614   0.000000   0.000000
  311        9.852822      9.858269   0.000000   0.000000
  312        9.876824      9.870206   0.000000   0.000000
  313       10.075214     10.106054   0.000000   0.000000
  314       10.161644     10.173122   0.000000   0.000000
  315       10.312754     10.316064   0.000000   0.000000
  316       10.413733     10.414168   0.000000   0.000000
  317       10.425058     10.425397   0.000000   0.000000
  318       10.439884     10.453964   0.000000   0.000000
  319       10.513851     10.511540   0.000000   0.000000
  320       10.530326     10.535786   0.000000   0.000000
  321       10.558319     10.587808   0.000000   0.000000
  322       10.581062     10.638190   0.000000   0.000000
  323       10.630406     10.731099   0.000000   0.000000
  324       10.838308     10.820815   0.000000   0.000000
  325       10.932710     10.962649   0.000000   0.000000
  326       11.324195     11.353373   0.000000   0.000000
  327       11.388479     11.382289   0.000000   0.000000
  328       11.522062     11.504492   0.000000   0.000000
  329       11.545319     11.534662   0.000000   0.000000
  330       11.575095     11.568702   0.000000   0.000000
  331       11.597373     11.606208   0.000000   0.000000
  332       11.619182     11.640537   0.000000   0.000000
  333       11.626719     11.646260   0.000000   0.000000
  334       11.634105     11.669261   0.000000   0.000000
  335       11.675206     11.683801   0.000000   0.000000
  336       11.680703     11.703953   0.000000   0.000000
  337       11.706429     11.719026   0.000000   0.000000
  338       11.737206     11.738688   0.000000   0.000000
  339       11.743348     11.767995   0.000000   0.000000
  340       11.776164     11.775411   0.000000   0.000000
  341       11.807747     11.799304   0.000000   0.000000
  342       11.829795     11.833827   0.000000   0.000000
  343       11.862128     11.846257   0.000000   0.000000
  344       11.874957     11.870929   0.000000   0.000000
  345       11.891939     11.896409   0.000000   0.000000
  346       11.921777     11.912370   0.000000   0.000000
  347       11.933733     11.941869   0.000000   0.000000
  348       11.955277     11.960054   0.000000   0.000000
  349       11.966305     11.960224   0.000000   0.000000
  350       11.974549     12.006349   0.000000   0.000000
  351       12.000289     12.033034   0.000000   0.000000
  352       12.037162     12.044362   0.000000   0.000000
  353       12.038899     12.081447   0.000000   0.000000
  354       12.071513     12.116745   0.000000   0.000000
  355       12.098862     12.120994   0.000000   0.000000
  356       12.174109     12.154802   0.000000   0.000000
  357       12.188633     12.191196   0.000000   0.000000
  358       12.249457     12.193800   0.000000   0.000000
  359       12.251096     12.219526   0.000000   0.000000
  360       12.307665     12.242679   0.000000   0.000000
  361       12.330316     12.303003   0.000000   0.000000
  362       12.348634     12.336654   0.000000   0.000000
  363       12.395327     12.391905   0.000000   0.000000
  364       12.415520     12.412887   0.000000   0.000000
  365       12.453766     12.475021   0.000000   0.000000
  366       12.469229     12.546321   0.000000   0.000000
  367       12.536838     12.558925   0.000000   0.000000
  368       12.616704     12.638938   0.000000   0.000000
  369       12.640112     12.679838   0.000000   0.000000
  370       12.667735     12.748744   0.000000   0.000000
  371       12.729360     12.838691   0.000000   0.000000
  372       12.831021     12.847684   0.000000   0.000000
  373       12.905755     12.977815   0.000000   0.000000
  374       13.010662     13.107247   0.000000   0.000000
  375       13.110932     13.165597   0.000000   0.000000
  376       13.267442     13.254409   0.000000   0.000000
  377       13.275213     13.302524   0.000000   0.000000
  378       13.386231     13.407212   0.000000   0.000000
  379       13.502878     13.439912   0.000000   0.000000
  380       13.561170     13.541474   0.000000   0.000000
  381       13.608668     13.598000   0.000000   0.000000
  382       13.635303     13.641852   0.000000   0.000000
  383       13.718547     13.744404   0.000000   0.000000
  384       13.755260     13.771356   0.000000   0.000000
  385       13.827286     13.894849   0.000000   0.000000
  386       13.858271     13.985421   0.000000   0.000000
  387       14.005094     13.999374   0.000000   0.000000
  388       14.075416     14.118522   0.000000   0.000000
  389       14.126159     14.166733   0.000000   0.000000
  390       14.135354     14.185395   0.000000   0.000000
  391       14.258660     14.337771   0.000000   0.000000
  392       14.285820     14.426316   0.000000   0.000000
