       N       E                     dE             d eps       ncg     rms          ort
DAV:   1     0.533344590004E+04    0.53334E+04   -0.24088E+05   392   0.106E+03
DAV:   2     0.135273564398E+04   -0.39807E+04   -0.35519E+04   392   0.270E+02
DAV:   3     0.541114822351E+03   -0.81162E+03   -0.75542E+03   392   0.110E+02
DAV:   4     0.382911204115E+03   -0.15820E+03   -0.15412E+03   392   0.552E+01
DAV:   5     0.349488608500E+03   -0.33423E+02   -0.32700E+02   392   0.234E+01
SDA:   6    -0.955047350312E+03   -0.13045E+04   -0.17488E+02   392   0.874E+02 0.000E+00
DMP:   7    -0.969040377225E+03   -0.13993E+02   -0.12508E+02   392   0.352E+02 0.526E+02
DMP:   8    -0.977270065024E+03   -0.82297E+01   -0.37608E+01   392   0.857E+01 0.197E+02
DMP:   9    -0.979285525685E+03   -0.20155E+01   -0.13650E+01   392   0.628E+01 0.106E+01
DMP:  10    -0.980196787378E+03   -0.91126E+00   -0.11394E+01   392   0.468E+01 0.197E+01
DMP:  11    -0.981050831852E+03   -0.85404E+00   -0.67011E+00   392   0.199E+01 0.262E+01
DMP:  12    -0.981514299162E+03   -0.46347E+00   -0.26227E+00   392   0.708E+00 0.116E+01
DMP:  13    -0.981683474699E+03   -0.16918E+00   -0.13166E+00   392   0.491E+00 0.323E+00
DMP:  14    -0.981782385694E+03   -0.98911E-01   -0.11383E+00   392   0.409E+00 0.308E+00
DMP:  15    -0.981873894007E+03   -0.91508E-01   -0.80379E-01   392   0.227E+00 0.337E+00
DMP:  16    -0.981933293114E+03   -0.59399E-01   -0.36017E-01   392   0.818E-01 0.189E+00
DMP:  17    -0.981957321189E+03   -0.24028E-01   -0.13841E-01   392   0.385E-01 0.592E-01
DMP:  18    -0.981967086641E+03   -0.97655E-02   -0.89337E-02   392   0.301E-01 0.281E-01
DMP:  19    -0.981974347622E+03   -0.72610E-02   -0.66297E-02   392   0.187E-01 0.278E-01
DMP:  20    -0.981979783946E+03   -0.54363E-02   -0.40597E-02   392   0.929E-02 0.212E-01
DMP:  21    -0.981983081594E+03   -0.32976E-02   -0.23014E-02   392   0.492E-02 0.127E-01
DMP:  22    -0.981984995188E+03   -0.19136E-02   -0.14448E-02   392   0.325E-02 0.765E-02
DMP:  23    -0.981986240356E+03   -0.12452E-02   -0.99106E-03   392   0.223E-02 0.525E-02
DMP:  24    -0.981987100504E+03   -0.86015E-03   -0.65719E-03   392   0.138E-02 0.367E-02
DMP:  25    -0.981987666316E+03   -0.56581E-03   -0.41299E-03   392   0.821E-03 0.239E-02
DMP:  26    -0.981988024504E+03   -0.35819E-03   -0.26548E-03   392   0.533E-03 0.153E-02
DMP:  27    -0.981988260120E+03   -0.23562E-03   -0.18142E-03   392   0.370E-03 0.103E-02
DMP:  28    -0.981988424186E+03   -0.16407E-03   -0.12791E-03   392   0.258E-03 0.734E-03
DMP:  29    -0.981988540828E+03   -0.11664E-03   -0.90507E-04   392   0.179E-03 0.526E-03
DMP:  30    -0.981988623779E+03   -0.82951E-04   -0.64503E-04   392   0.127E-03 0.376E-03
DMP:  31    -0.981988683275E+03   -0.59496E-04   -0.46814E-04   392   0.928E-04 0.272E-03
DMP:  32    -0.981988726702E+03   -0.43427E-04   -0.34558E-04   392   0.689E-04 0.200E-03
DMP:  33    -0.981988758842E+03   -0.32140E-04   -0.25814E-04   392   0.519E-04 0.149E-03
DMP:  34    -0.981988782889E+03   -0.24048E-04   -0.19634E-04   392   0.401E-04 0.112E-03
DMP:  35    -0.981988801215E+03   -0.18325E-04   -0.15276E-04   392   0.318E-04 0.858E-04
DMP:  36    -0.981988815479E+03   -0.14264E-04   -0.12120E-04   392   0.256E-04 0.673E-04
DMP:  37    -0.981988826796E+03   -0.11318E-04   -0.97928E-05   392   0.211E-04 0.537E-04
DMP:  38    -0.981988835951E+03   -0.91542E-05   -0.80539E-05   392   0.176E-04 0.436E-04
   1 F= -.98198884E+03 E0= -.98198884E+03  d E =-.188638E-11  mag=     0.0000
