 vasp.5.4.4.18Apr17-6-g9f103f2a35 (build Nov 17 2021 14:08:04) gamma-only       
  
 executed on             LinuxIFC date 2022.03.05  16:38:53
 running on   96 total cores
 distrk:  each k-point on   96 cores,    1 groups
 distr:  one band on NCORES_PER_BAND=  12 cores,    8 groups


--------------------------------------------------------------------------------------------------------


 INCAR:
 POTCAR:    PAW_PBE Ga 08Apr2002                  
 POTCAR:    PAW_PBE N 08Apr2002                   
 POTCAR:    PAW_PBE C 08Apr2002                   
 POTCAR:    PAW_PBE Ga 08Apr2002                  
   VRHFIN =Ga: s2p1                                                             
   LEXCH  = PE                                                                  
   EATOM  =    58.8688 eV,    4.3267 Ry                                         
                                                                                
   TITEL  = PAW_PBE Ga 08Apr2002                                                
   LULTRA =        F    use ultrasoft PP ?                                      
   IUNSCR =        1    unscreen: 0-lin 1-nonlin 2-no                           
   RPACOR =    2.170    partial core radius                                     
   POMASS =   69.723; ZVAL   =    3.000    mass and valenz                      
   RCORE  =    2.600    outmost cutoff radius                                   
   RWIGS  =    2.650; RWIGS  =    1.402    wigner-seitz radius (au A)           
   ENMAX  =  134.678; ENMIN  =  101.009 eV                                      
   ICORE  =        3    local potential                                         
   LCOR   =        T    correct aug charges                                     
   LPAW   =        T    paw PP                                                  
   EAUG   =  320.264                                                            
   DEXC   =    0.000                                                            
   RMAX   =    2.658    core radius for proj-oper                               
   RAUG   =    1.300    factor for augmentation sphere                          
   RDEP   =    2.684    radius for radial grids                                 
   RDEPT  =    2.308    core radius for aug-charge                              
                                                                                
   Atomic configuration                                                         
   10 entries                                                                   
     n  l   j            E        occ.                                          
     1  0  0.50    -10228.7830   2.0000                                         
     2  0  0.50     -1262.1604   2.0000                                         
     2  1  1.50     -1098.6333   6.0000                                         
     3  0  0.50      -148.1110   2.0000                                         
     3  1  1.50       -98.8436   6.0000                                         
     3  2  2.50       -19.1549  10.0000                                         
     4  0  0.50        -8.9483   2.0000                                         
     4  1  0.50        -2.5791   1.0000                                         
     4  2  1.50         5.4423   0.0000                                         
     4  3  2.50        -2.7416   0.0000                                         
   Description                                                                  
     l       E           TYP  RCUT    TYP  RCUT                                 
     0     -8.9483097     23  2.600                                             
     0     -5.8232215     23  2.600                                             
     1     -2.5790793     23  2.600                                             
     1      5.2230115     23  2.600                                             
     2      1.3605826     23  2.600                                             
     3     -1.3605826      7  2.600                                             
  local pseudopotential read in
  partial core-charges read in
  partial kinetic energy density read in
  atomic valenz-charges read in
  non local Contribution for L=           0  read in
    real space projection operators read in
  non local Contribution for L=           0  read in
    real space projection operators read in
  non local Contribution for L=           1  read in
    real space projection operators read in
  non local Contribution for L=           1  read in
    real space projection operators read in
  non local Contribution for L=           2  read in
    real space projection operators read in
    PAW grid and wavefunctions read in
 
   number of l-projection  operators is LMAX  =           5
   number of lm-projection operators is LMMAX =          13
 
 POTCAR:    PAW_PBE N 08Apr2002                   
   VRHFIN =N: s2p3                                                              
   LEXCH  = PE                                                                  
   EATOM  =   264.5486 eV,   19.4438 Ry                                         
                                                                                
   TITEL  = PAW_PBE N 08Apr2002                                                 
   LULTRA =        F    use ultrasoft PP ?                                      
   IUNSCR =        1    unscreen: 0-lin 1-nonlin 2-no                           
   RPACOR =    1.200    partial core radius                                     
   POMASS =   14.001; ZVAL   =    5.000    mass and valenz                      
   RCORE  =    1.500    outmost cutoff radius                                   
   RWIGS  =    1.400; RWIGS  =    0.741    wigner-seitz radius (au A)           
   ENMAX  =  400.000; ENMIN  =  300.000 eV                                      
   ICORE  =        2    local potential                                         
   LCOR   =        T    correct aug charges                                     
   LPAW   =        T    paw PP                                                  
   EAUG   =  627.112                                                            
   DEXC   =    0.000                                                            
   RMAX   =    1.529    core radius for proj-oper                               
   RAUG   =    1.300    factor for augmentation sphere                          
   RDEP   =    1.514    radius for radial grids                                 
   RDEPT  =    1.338    core radius for aug-charge                              
                                                                                
   Atomic configuration                                                         
    4 entries                                                                   
     n  l   j            E        occ.                                          
     1  0  0.50      -384.7179   2.0000                                         
     2  0  0.50       -18.5828   2.0000                                         
     2  1  0.50        -7.0898   3.0000                                         
     3  2  1.50        -6.8029   0.0000                                         
   Description                                                                  
     l       E           TYP  RCUT    TYP  RCUT                                 
     0    -18.5828119     23  1.200                                             
     0    -13.5018863     23  1.200                                             
     1     -7.0897853     23  1.500                                             
     1      9.5240782     23  1.500                                             
     2     -6.8029130      7  1.500                                             
  local pseudopotential read in
  partial core-charges read in
  partial kinetic energy density read in
  atomic valenz-charges read in
  non local Contribution for L=           0  read in
    real space projection operators read in
  non local Contribution for L=           0  read in
    real space projection operators read in
  non local Contribution for L=           1  read in
    real space projection operators read in
  non local Contribution for L=           1  read in
    real space projection operators read in
    PAW grid and wavefunctions read in
 
   number of l-projection  operators is LMAX  =           4
   number of lm-projection operators is LMMAX =           8
 
 POTCAR:    PAW_PBE C 08Apr2002                   
   VRHFIN =C: s2p2                                                              
   LEXCH  = PE                                                                  
   EATOM  =   147.1560 eV,   10.8157 Ry                                         
                                                                                
   TITEL  = PAW_PBE C 08Apr2002                                                 
   LULTRA =        F    use ultrasoft PP ?                                      
   IUNSCR =        1    unscreen: 0-lin 1-nonlin 2-no                           
   RPACOR =    1.200    partial core radius                                     
   POMASS =   12.011; ZVAL   =    4.000    mass and valenz                      
   RCORE  =    1.500    outmost cutoff radius                                   
   RWIGS  =    1.630; RWIGS  =    0.863    wigner-seitz radius (au A)           
   ENMAX  =  400.000; ENMIN  =  300.000 eV                                      
   ICORE  =        2    local potential                                         
   LCOR   =        T    correct aug charges                                     
   LPAW   =        T    paw PP                                                  
   EAUG   =  644.873                                                            
   DEXC   =    0.000                                                            
   RMAX   =    1.529    core radius for proj-oper                               
   RAUG   =    1.300    factor for augmentation sphere                          
   RDEP   =    1.501    radius for radial grids                                 
   RDEPT  =    1.300    core radius for aug-charge                              
                                                                                
   Atomic configuration                                                         
    4 entries                                                                   
     n  l   j            E        occ.                                          
     1  0  0.50      -273.3789   2.0000                                         
     2  0  0.50       -13.7508   2.0000                                         
     2  1  0.50        -5.2854   2.0000                                         
     3  2  1.50        -5.4423   0.0000                                         
   Description                                                                  
     l       E           TYP  RCUT    TYP  RCUT                                 
     0    -13.7508458     23  1.200                                             
     0     -8.2022199     23  1.200                                             
     1     -5.2854383     23  1.500                                             
     1     34.0145650     23  1.500                                             
     2     -5.4423304      7  1.500                                             
  local pseudopotential read in
  partial core-charges read in
  partial kinetic energy density read in
  atomic valenz-charges read in
  non local Contribution for L=           0  read in
    real space projection operators read in
  non local Contribution for L=           0  read in
    real space projection operators read in
  non local Contribution for L=           1  read in
    real space projection operators read in
  non local Contribution for L=           1  read in
    real space projection operators read in
    PAW grid and wavefunctions read in
 
   number of l-projection  operators is LMAX  =           4
   number of lm-projection operators is LMMAX =           8
 

 ----------------------------------------------------------------------------- 
|                                                                             |
|  ADVICE TO THIS USER RUNNING 'VASP/VAMP'   (HEAR YOUR MASTER'S VOICE ...):  |
|                                                                             |
|      You have a (more or less) 'large supercell' and for larger cells       |
|      it might be more efficient to use real space projection opertators     |
|      So try LREAL= Auto  in the INCAR   file.                               |
|      Mind:          For very  accurate calculation you might also keep the  |
|      reciprocal projection scheme          (i.e. LREAL=.FALSE.)             |
|                                                                             |
 ----------------------------------------------------------------------------- 

  PAW_PBE Ga 08Apr2002                  :
 energy of atom  1       EATOM=  -58.8688
 kinetic energy error for atom=    0.0001 (will be added to EATOM!!)
  PAW_PBE N 08Apr2002                   :
 energy of atom  2       EATOM= -264.5486
 kinetic energy error for atom=    0.0736 (will be added to EATOM!!)
  PAW_PBE C 08Apr2002                   :
 energy of atom  3       EATOM= -147.1560
 kinetic energy error for atom=    0.0288 (will be added to EATOM!!)
 
 
 POSCAR: C_N1                                    
  positions in direct lattice
  velocities in cartesian coordinates
 exchange correlation table for  LEXCH =        8
   RHO(1)=    0.500       N(1)  =     2000
   RHO(2)=  100.500       N(2)  =     4000
 


--------------------------------------------------------------------------------------------------------


 ion  position               nearest neighbor table
   1  0.000  0.167  0.249- 128 1.94  67 1.98 113 1.98  65 1.98  50 3.15   2 3.15   4 3.15  49 3.18
                            17 3.18  59 3.18  11 3.18  51 3.18   3 3.18  54 3.21   6 3.21   8 3.21
   2  0.124  0.084  0.001- 128 1.93  74 1.98  80 1.98  69 1.98   5 3.14   1 3.15  50 3.16   4 3.16
                            17 3.17  11 3.17  12 3.18  20 3.18  21 3.19  15 3.19  18 3.21  28 3.21
   3  0.124  0.416  0.250-  67 1.94  66 1.95  83 1.96  73 1.96  20 3.17  51 3.17   4 3.17   1 3.18
                            10 3.18  24 3.18  14 3.18   8 3.19  17 3.19   9 3.19  19 3.20  25 3.20
   4  0.000  0.332  0.001- 128 1.93 114 1.98  66 1.98  71 1.98   5 3.14   1 3.15  50 3.16   2 3.16
                            51 3.17   3 3.17  20 3.18  52 3.18  55 3.19   7 3.19  58 3.22  10 3.22
   5  0.000  0.167  0.754-  71 1.95 117 1.95  69 1.95  68 1.97  50 3.14   2 3.14   4 3.14  54 3.19
                             6 3.19   8 3.19  53 3.19  21 3.19  63 3.19  15 3.19  55 3.19   7 3.19
   6  0.125  0.083  0.502-  65 1.94  68 1.95  78 1.95  84 1.95  21 3.17  15 3.17  54 3.19  17 3.19
                            11 3.19   8 3.19  32 3.19  24 3.19  22 3.19  16 3.19   5 3.19   1 3.21
   7  0.125  0.417  0.751-  71 1.93  77 1.95  87 1.95  70 1.96   8 3.17  14 3.18  20 3.18  10 3.18
                            24 3.18   4 3.19  23 3.19  29 3.19  55 3.19  13 3.19   5 3.19  21 3.20
   8  0.000  0.333  0.502-  67 1.94  68 1.95 118 1.95  70 1.95  55 3.17   7 3.17  51 3.19   3 3.19
                            24 3.19  56 3.19  54 3.19   6 3.19  62 3.19  14 3.19   5 3.19   1 3.21
   9  0.000  0.667  0.250-  75 1.95 121 1.95  73 1.95  72 1.96  58 3.17  10 3.17  16 3.18  12 3.18
                            62 3.18  14 3.18  25 3.19  57 3.19  51 3.19   3 3.19  59 3.20  11 3.20
  10  0.125  0.584  0.001-  66 1.93  72 1.95  88 1.95  77 1.96  25 3.17   9 3.17  29 3.18  13 3.18
                            28 3.18   3 3.18   7 3.18  26 3.19  58 3.20  12 3.20  20 3.20   4 3.22
  11  0.125  0.918  0.250-  65 1.94  74 1.95  75 1.95  91 1.96  12 3.17  17 3.17   2 3.17   1 3.18
                            28 3.18  16 3.18  32 3.18  27 3.19   6 3.19  59 3.19   9 3.20  25 3.20
  12  0.000  0.835  0.001- 122 1.95  74 1.95  72 1.95  79 1.96  59 3.17  11 3.17  50 3.18   2 3.18
                             9 3.18  63 3.18  15 3.18  13 3.19  60 3.20  28 3.20  58 3.20  10 3.20
  13  0.000  0.667  0.751-  79 1.94 125 1.95  77 1.95  76 1.96  58 3.18  10 3.18  16 3.18  62 3.18
                            14 3.18  63 3.19  15 3.19  55 3.19   7 3.19  12 3.19  29 3.19  61 3.19
  14  0.125  0.583  0.500-  70 1.94  76 1.95  92 1.95  73 1.95  25 3.18   9 3.18   7 3.18  29 3.18
                            13 3.18   3 3.18  62 3.19  24 3.19   8 3.19  30 3.19  16 3.19  32 3.19
  15  0.125  0.916  0.751-  69 1.93  79 1.95  95 1.95  78 1.96   6 3.17  32 3.18  12 3.18  28 3.18
                            16 3.18   2 3.19  13 3.19  31 3.19  29 3.19  21 3.19   5 3.19  63 3.19
  16  0.000  0.833  0.500- 126 1.95  78 1.95  76 1.95  75 1.95   9 3.18  59 3.18  11 3.18  13 3.18
                            63 3.18  15 3.18  32 3.19  64 3.19  54 3.19   6 3.19  62 3.19  14 3.19
  17  0.249  0.166  0.250-  65 1.94  80 1.95  83 1.95  81 1.96  20 3.17  11 3.17   2 3.17   1 3.18
                            18 3.18  22 3.18  24 3.18  27 3.19   6 3.19   3 3.19  19 3.20  33 3.20
  18  0.375  0.083  0.001-  80 1.93  96 1.95  90 1.95  85 1.96  33 3.17  37 3.18  27 3.18  21 3.18
                            31 3.18  17 3.18  34 3.18  36 3.19  44 3.19  28 3.19  20 3.19   2 3.21
  19  0.375  0.416  0.250-  83 1.95  89 1.95  99 1.95  82 1.96  20 3.17  26 3.18  24 3.18  36 3.18
                            40 3.18  30 3.18  33 3.19  25 3.19  41 3.20  17 3.20   3 3.20  35 3.20
  20  0.249  0.333  0.001-  80 1.94  66 1.94  82 1.96  87 1.96   3 3.17  17 3.17  19 3.17   4 3.18
                             2 3.18   7 3.18  21 3.18  23 3.19  18 3.19  10 3.20  26 3.20  36 3.20
  21  0.250  0.167  0.751-  69 1.93  87 1.95  85 1.95  84 1.96   6 3.17  18 3.18  22 3.18  20 3.18
                            24 3.18   2 3.19  23 3.19  31 3.19  37 3.19  15 3.19   5 3.19   7 3.20
  22  0.375  0.084  0.500-  84 1.94  94 1.95 100 1.95  81 1.95  27 3.18  33 3.18  21 3.18  37 3.18
                            31 3.18  17 3.18  24 3.19  40 3.19   6 3.19  48 3.19  32 3.19  38 3.19
  23  0.375  0.416  0.751-  87 1.94  93 1.95 103 1.95  86 1.96  26 3.18  36 3.18  40 3.18  24 3.18
                            30 3.18  21 3.19   7 3.19  20 3.19  37 3.19  29 3.19  45 3.19  39 3.20
  24  0.250  0.333  0.500-  84 1.95  70 1.95  86 1.95  83 1.96  19 3.18  23 3.18   3 3.18  17 3.18
                             7 3.18  21 3.18  22 3.19   8 3.19  14 3.19   6 3.19  30 3.19  40 3.19
  25  0.250  0.667  0.250-  73 1.95  91 1.95  89 1.95  88 1.95  10 3.17  28 3.18  14 3.18  26 3.18
                            32 3.18  30 3.18   9 3.19  27 3.19  41 3.19  19 3.19  11 3.20   3 3.20
  26  0.375  0.583  0.001-  88 1.94  82 1.94 104 1.95  93 1.96  19 3.18  23 3.18  41 3.18  25 3.18
                            45 3.18  29 3.18  36 3.19  10 3.19  28 3.19  42 3.19  44 3.19  20 3.20
  27  0.375  0.917  0.251-  81 1.95  91 1.95 107 1.95  90 1.96  28 3.18  32 3.18  22 3.18  18 3.18
                            48 3.18  44 3.18  17 3.19  11 3.19  33 3.19  25 3.19  41 3.19  43 3.20
  28  0.250  0.833  0.001-  74 1.93  88 1.94  90 1.95  95 1.96  25 3.18  27 3.18  31 3.18  29 3.18
                            15 3.18  10 3.18  11 3.18  44 3.19  26 3.19  18 3.19  12 3.20   2 3.21
  29  0.250  0.667  0.751-  95 1.94  77 1.94  93 1.95  92 1.96  10 3.18  30 3.18  28 3.18  14 3.18
                            32 3.18  26 3.18   7 3.19  15 3.19  45 3.19  31 3.19  13 3.19  23 3.19
  30  0.375  0.583  0.501-  92 1.95  86 1.95 108 1.95  89 1.96  29 3.18  41 3.18  45 3.18  25 3.18
                            19 3.18  23 3.18  14 3.19  40 3.19  24 3.19  32 3.19  46 3.19  48 3.19
  31  0.375  0.917  0.751-  95 1.95  85 1.95 111 1.95  94 1.96  28 3.18  18 3.18  48 3.18  44 3.18
                            32 3.18  22 3.18  21 3.19  15 3.19  37 3.19  29 3.19  45 3.19  47 3.19
  32  0.250  0.833  0.500-  78 1.94  92 1.95  94 1.95  91 1.95  27 3.18  25 3.18  15 3.18  29 3.18
                            31 3.18  11 3.18  16 3.19   6 3.19  14 3.19  22 3.19  30 3.19  48 3.19
  33  0.500  0.167  0.250-  81 1.95  97 1.95  99 1.95  96 1.95  18 3.17  34 3.17  36 3.18  22 3.18
                            38 3.18  40 3.18  27 3.19  43 3.19  19 3.19  35 3.19  17 3.20  49 3.20
  34  0.625  0.083  0.001- 112 1.93  96 1.95 106 1.95 101 1.96  33 3.17  37 3.18  43 3.18  53 3.18
                            47 3.18  49 3.18  18 3.18  36 3.19  44 3.19  60 3.19  52 3.19  50 3.21
  35  0.625  0.416  0.250- 115 1.95 105 1.95  99 1.95  98 1.96  52 3.17  42 3.18  56 3.18  36 3.18
                            40 3.18  46 3.18  33 3.19  57 3.19  41 3.20  49 3.20  51 3.20  19 3.20
  36  0.500  0.333  0.001-  96 1.94  82 1.95  98 1.95 103 1.96  33 3.18  19 3.18  35 3.18  23 3.18
                            39 3.18  37 3.18  18 3.19  34 3.19  26 3.19  42 3.19  20 3.20  52 3.20
  37  0.500  0.167  0.750-  85 1.94 101 1.94 103 1.95 100 1.96  18 3.18  34 3.18  40 3.18  22 3.18
                            38 3.18  36 3.18  21 3.19  53 3.19  31 3.19  47 3.19  23 3.19  39 3.19
  38  0.625  0.084  0.500- 116 1.94 110 1.95 100 1.95  97 1.95  43 3.18  33 3.18  53 3.18  37 3.18
                            47 3.18  49 3.18  56 3.19  40 3.19  54 3.19  48 3.19  64 3.19  22 3.19
  39  0.625  0.416  0.751- 119 1.94 109 1.95 103 1.95 102 1.96  42 3.18  36 3.18  40 3.18  56 3.18
                            46 3.18  53 3.19  55 3.19  52 3.19  37 3.19  61 3.19  45 3.19  23 3.20
  40  0.500  0.333  0.501- 100 1.95  86 1.95 102 1.95  99 1.96  37 3.18  33 3.18  19 3.18  35 3.18
                            23 3.18  39 3.18  22 3.19  38 3.19  30 3.19  46 3.19  24 3.19  56 3.19
  41  0.500  0.667  0.251- 107 1.95  89 1.95 105 1.95 104 1.96  44 3.18  26 3.18  42 3.18  30 3.18
                            46 3.18  48 3.18  25 3.19  57 3.19  27 3.19  43 3.19  19 3.20  35 3.20
  42  0.625  0.583  0.001- 120 1.94  98 1.94 104 1.95 109 1.96  35 3.18  39 3.18  41 3.18  57 3.18
                            45 3.18  61 3.18  36 3.19  58 3.19  60 3.19  26 3.19  44 3.19  52 3.20
  43  0.625  0.917  0.251-  97 1.95 123 1.95 107 1.95 106 1.96  60 3.18  64 3.18  38 3.18  34 3.18
                            48 3.18  44 3.18  49 3.19  59 3.19  33 3.19  57 3.19  41 3.19  27 3.20
  44  0.500  0.833  0.001-  90 1.94 106 1.94 104 1.95 111 1.96  41 3.18  45 3.18  27 3.18  43 3.18
                            31 3.18  47 3.18  28 3.19  60 3.19  18 3.19  34 3.19  26 3.19  42 3.19
  45  0.500  0.667  0.751- 111 1.95  93 1.95 109 1.95 108 1.96  44 3.18  26 3.18  42 3.18  30 3.18
                            46 3.18  48 3.18  29 3.19  61 3.19  31 3.19  47 3.19  23 3.19  39 3.19
  46  0.625  0.583  0.501- 124 1.95 102 1.95 108 1.95 105 1.96  61 3.18  41 3.18  45 3.18  57 3.18
                            35 3.18  39 3.18  62 3.19  40 3.19  56 3.19  64 3.19  30 3.19  48 3.19
  47  0.625  0.917  0.751- 127 1.95 101 1.95 111 1.95 110 1.96  60 3.18  34 3.18  48 3.18  44 3.18
                            64 3.18  38 3.18  53 3.19  63 3.19  37 3.19  61 3.19  45 3.19  31 3.19
  48  0.500  0.834  0.501-  94 1.95 110 1.95 108 1.95 107 1.96  31 3.18  47 3.18  27 3.18  43 3.18
                            41 3.18  45 3.18  22 3.19  38 3.19  32 3.19  64 3.19  30 3.19  46 3.19
  49  0.751  0.166  0.250- 113 1.94 112 1.95 115 1.95  97 1.96  52 3.17  59 3.17  50 3.17   1 3.18
                            34 3.18  38 3.18  56 3.18  43 3.19  54 3.19  51 3.19  35 3.20  33 3.20
  50  0.876  0.084  0.001- 128 1.93 122 1.98 112 1.98 117 1.98   5 3.14   1 3.15   2 3.16   4 3.16
                            49 3.17  59 3.17  12 3.18  52 3.18  53 3.19  63 3.19  34 3.21  60 3.21
  51  0.876  0.416  0.250-  67 1.94 114 1.95 115 1.96 121 1.96  52 3.17   3 3.17   4 3.17   1 3.18
                            58 3.18  56 3.18  62 3.18   8 3.19  49 3.19   9 3.19  35 3.20  57 3.20
  52  0.751  0.333  0.001- 112 1.94 114 1.94  98 1.96 119 1.96  51 3.17  49 3.17  35 3.17   4 3.18
                            50 3.18  55 3.18  53 3.18  39 3.19  34 3.19  58 3.20  42 3.20  36 3.20
  53  0.750  0.167  0.751- 117 1.93 119 1.95 101 1.95 116 1.96  54 3.17  34 3.18  38 3.18  52 3.18
                            56 3.18  50 3.19  39 3.19  47 3.19  37 3.19  63 3.19   5 3.19  55 3.20
  54  0.875  0.083  0.502- 113 1.94  68 1.95 126 1.95 116 1.95  53 3.17  63 3.17   6 3.19  49 3.19
                            59 3.19   8 3.19  64 3.19  56 3.19  38 3.19  16 3.19   5 3.19   1 3.21
  55  0.875  0.417  0.751-  71 1.93 125 1.95 119 1.95 118 1.96   8 3.17  62 3.18  52 3.18  58 3.18
                            56 3.18   4 3.19  39 3.19  61 3.19   7 3.19  13 3.19   5 3.19  53 3.20
  56  0.750  0.333  0.500- 116 1.95 118 1.95 102 1.95 115 1.96  35 3.18  39 3.18  51 3.18  49 3.18
                            55 3.18  53 3.18  38 3.19   8 3.19  62 3.19  54 3.19  46 3.19  40 3.19
  57  0.750  0.667  0.250- 121 1.95 123 1.95 105 1.95 120 1.95  58 3.17  60 3.18  62 3.18  42 3.18
                            64 3.18  46 3.18   9 3.19  43 3.19  41 3.19  35 3.19  59 3.20  51 3.20
  58  0.875  0.584  0.001- 114 1.93  72 1.95 120 1.95 125 1.96  57 3.17   9 3.17  61 3.18  13 3.18
                            60 3.18  51 3.18  55 3.18  42 3.19  10 3.20  12 3.20  52 3.20   4 3.22
  59  0.875  0.918  0.250- 113 1.94 122 1.95  75 1.95 123 1.96  12 3.17  49 3.17  50 3.17   1 3.18
                            60 3.18  16 3.18  64 3.18  43 3.19  54 3.19  11 3.19   9 3.20  57 3.20
  60  0.750  0.833  0.001- 122 1.93 120 1.94 106 1.95 127 1.96  57 3.18  43 3.18  47 3.18  61 3.18
                            63 3.18  58 3.18  59 3.18  44 3.19  42 3.19  34 3.19  12 3.20  50 3.21
  61  0.750  0.667  0.751- 127 1.94 125 1.94 109 1.95 124 1.96  58 3.18  46 3.18  60 3.18  62 3.18
                            64 3.18  42 3.18  55 3.19  63 3.19  45 3.19  47 3.19  13 3.19  39 3.19
  62  0.875  0.583  0.500- 118 1.94  76 1.95 124 1.95 121 1.95  57 3.18   9 3.18  55 3.18  61 3.18
                            13 3.18  51 3.18  14 3.19  56 3.19   8 3.19  46 3.19  16 3.19  64 3.19
  63  0.875  0.916  0.751- 117 1.93  79 1.95 127 1.95 126 1.96  54 3.17  64 3.18  12 3.18  60 3.18
                            16 3.18  50 3.19  13 3.19  47 3.19  61 3.19  53 3.19   5 3.19  15 3.19
  64  0.750  0.833  0.500- 126 1.94 124 1.95 110 1.95 123 1.95  43 3.18  57 3.18  63 3.18  61 3.18
                            47 3.18  59 3.18  16 3.19  54 3.19  62 3.19  38 3.19  46 3.19  48 3.19
  65  0.126  0.083  0.315-   6 1.94  11 1.94  17 1.94   1 1.98
  66  0.126  0.419  0.062-  10 1.93  20 1.94   3 1.95   4 1.98
  67  0.000  0.334  0.315-   8 1.94  51 1.94   3 1.94   1 1.98
  68  0.000  0.167  0.564-   8 1.95  54 1.95   6 1.95   5 1.97
  69  0.126  0.082  0.810-  15 1.93  21 1.93   5 1.95   2 1.98
  70  0.126  0.417  0.562-  14 1.94  24 1.95   8 1.95   7 1.96
  71  0.000  0.335  0.810-  55 1.93   7 1.93   5 1.95   4 1.98
  72  0.000  0.667  0.062-  58 1.95  10 1.95  12 1.95   9 1.96
  73  0.125  0.583  0.312-  25 1.95   9 1.95  14 1.95   3 1.96
  74  0.127  0.915  0.062-  28 1.93  12 1.95  11 1.95   2 1.98
  75  0.000  0.833  0.312-   9 1.95  59 1.95  11 1.95  16 1.95
  76  0.000  0.667  0.562-  62 1.95  14 1.95  16 1.95  13 1.96
  77  0.125  0.584  0.812-  29 1.94  13 1.95   7 1.95  10 1.96
  78  0.125  0.916  0.562-  32 1.94  16 1.95   6 1.95  15 1.96
  79  0.000  0.833  0.812-  13 1.94  63 1.95  15 1.95  12 1.96
  80  0.252  0.166  0.062-  18 1.93  20 1.94  17 1.95   2 1.98
  81  0.375  0.083  0.312-  27 1.95  33 1.95  22 1.95  17 1.96
  82  0.375  0.417  0.062-  26 1.94  36 1.95  19 1.96  20 1.96
  83  0.250  0.333  0.311-  19 1.95  17 1.95  24 1.96   3 1.96
  84  0.251  0.167  0.562-  22 1.94  24 1.95   6 1.95  21 1.96
  85  0.375  0.083  0.812-  37 1.94  31 1.95  21 1.95  18 1.96
  86  0.375  0.417  0.562-  30 1.95  40 1.95  24 1.95  23 1.96
  87  0.250  0.333  0.812-  23 1.94  21 1.95   7 1.95  20 1.96
  88  0.251  0.667  0.062-  26 1.94  28 1.94  10 1.95  25 1.95
  89  0.375  0.583  0.312-  41 1.95  19 1.95  25 1.95  30 1.96
  90  0.376  0.917  0.062-  44 1.94  18 1.95  28 1.95  27 1.96
  91  0.250  0.833  0.312-  25 1.95  27 1.95  32 1.95  11 1.96
  92  0.250  0.667  0.562-  30 1.95  32 1.95  14 1.95  29 1.96
  93  0.375  0.583  0.812-  45 1.95  23 1.95  29 1.95  26 1.96
  94  0.375  0.917  0.562-  48 1.95  22 1.95  32 1.95  31 1.96
  95  0.250  0.833  0.812-  29 1.94  31 1.95  15 1.95  28 1.96
  96  0.500  0.167  0.062-  36 1.94  18 1.95  34 1.95  33 1.95
  97  0.625  0.083  0.312-  43 1.95  33 1.95  38 1.95  49 1.96
  98  0.625  0.417  0.062-  42 1.94  36 1.95  35 1.96  52 1.96
  99  0.500  0.333  0.312-  33 1.95  19 1.95  35 1.95  40 1.96
 100  0.500  0.167  0.562-  40 1.95  22 1.95  38 1.95  37 1.96
 101  0.625  0.083  0.812-  37 1.94  47 1.95  53 1.95  34 1.96
 102  0.625  0.417  0.562-  46 1.95  40 1.95  56 1.95  39 1.96
 103  0.500  0.333  0.812-  37 1.95  23 1.95  39 1.95  36 1.96
 104  0.500  0.667  0.062-  44 1.95  26 1.95  42 1.95  41 1.96
 105  0.625  0.583  0.312-  41 1.95  35 1.95  57 1.95  46 1.96
 106  0.624  0.917  0.062-  44 1.94  34 1.95  60 1.95  43 1.96
 107  0.500  0.833  0.312-  41 1.95  27 1.95  43 1.95  48 1.96
 108  0.500  0.667  0.562-  48 1.95  30 1.95  46 1.95  45 1.96
 109  0.625  0.583  0.812-  45 1.95  39 1.95  61 1.95  42 1.96
 110  0.625  0.917  0.562-  48 1.95  38 1.95  64 1.95  47 1.96
 111  0.500  0.833  0.812-  45 1.95  31 1.95  47 1.95  44 1.96
 112  0.748  0.166  0.062-  34 1.93  52 1.94  49 1.95  50 1.98
 113  0.874  0.083  0.315-  54 1.94  59 1.94  49 1.94   1 1.98
 114  0.874  0.419  0.062-  58 1.93  52 1.94  51 1.95   4 1.98
 115  0.750  0.333  0.311-  35 1.95  49 1.95  56 1.96  51 1.96
 116  0.749  0.167  0.562-  38 1.94  56 1.95  54 1.95  53 1.96
 117  0.874  0.082  0.810-  63 1.93  53 1.93   5 1.95  50 1.98
 118  0.874  0.417  0.562-  62 1.94  56 1.95   8 1.95  55 1.96
 119  0.750  0.333  0.812-  39 1.94  53 1.95  55 1.95  52 1.96
 120  0.749  0.667  0.062-  42 1.94  60 1.94  58 1.95  57 1.95
 121  0.875  0.583  0.312-  57 1.95   9 1.95  62 1.95  51 1.96
 122  0.873  0.915  0.062-  60 1.93  12 1.95  59 1.95  50 1.98
 123  0.750  0.833  0.312-  57 1.95  43 1.95  64 1.95  59 1.96
 124  0.750  0.667  0.562-  46 1.95  64 1.95  62 1.95  61 1.96
 125  0.875  0.584  0.812-  61 1.94  13 1.95  55 1.95  58 1.96
 126  0.875  0.916  0.562-  64 1.94  16 1.95  54 1.95  63 1.96
 127  0.750  0.833  0.812-  61 1.94  47 1.95  63 1.95  60 1.96
 128  0.000  0.167  0.062-  50 1.93   2 1.93   4 1.93   1 1.94
 
  LATTYP: Found a simple orthorhombic cell.
 ALAT       =    10.3624043883
 B/A-ratio  =     1.0668844541
 C/A-ratio  =     1.2319320532
  
  Lattice vectors:
  
 A1 = (   0.0000000000,   0.0000000000, -10.3624043883)
 A2 = (   0.0000000000, -11.0554881486,   0.0000000000)
 A3 = ( -12.7657781141,   0.0000000000,   0.0000000000)


Analysis of symmetry for initial positions (statically):
=====================================================================
 Subroutine PRICEL returns:
 Original cell was already a primitive cell.
 

 Routine SETGRP: Setting up the symmetry group for a 
 simple orthorhombic supercell.


 Subroutine GETGRP returns: Found  2 space group operations
 (whereof  2 operations were pure point group operations)
 out of a pool of  8 trial point group operations.


The static configuration has the point symmetry C_1h.


Analysis of symmetry for dynamics (positions and initial velocities):
=====================================================================
 Subroutine PRICEL returns:
 Original cell was already a primitive cell.
 

 Routine SETGRP: Setting up the symmetry group for a 
 simple orthorhombic supercell.


 Subroutine GETGRP returns: Found  2 space group operations
 (whereof  2 operations were pure point group operations)
 out of a pool of  8 trial point group operations.


The dynamic configuration has the point symmetry C_1h.


Analysis of structural, dynamic, and magnetic symmetry:
=====================================================================
 Subroutine PRICEL returns:
 Original cell was already a primitive cell.
 

 Routine SETGRP: Setting up the symmetry group for a 
 simple orthorhombic supercell.


 Subroutine GETGRP returns: Found  2 space group operations
 (whereof  2 operations were pure point group operations)
 out of a pool of  8 trial point group operations.


The magnetic configuration has the point symmetry C_1h.


 Subroutine INISYM returns: Found  2 space group operations
 (whereof  2 operations are pure point group operations),
 and found     1 'primitive' translations

 
 
 KPOINTS: Automatic generation                    

Automatic generation of k-mesh.
Space group operators:
 irot       det(A)        alpha          n_x          n_y          n_z        tau_x        tau_y        tau_z
    1     1.000000     0.000000     1.000000     0.000000     0.000000     0.000000     0.000000     0.000000
    2    -1.000000   180.000000     1.000000     0.000000     0.000000     0.000000     0.000000     0.000000
 
 Subroutine IBZKPT returns following result:
 ===========================================
 
 Found      1 irreducible k-points:
 
 Following reciprocal coordinates:
            Coordinates               Weight
  0.000000  0.000000  0.000000      1.000000
 
 Following cartesian coordinates:
            Coordinates               Weight
  0.000000  0.000000  0.000000      1.000000
 
 
 Subroutine IBZKPT_HF returns following result:
 ==============================================
 
 Found      1 k-points in 1st BZ
 the following      1 k-points will be used (e.g. in the exchange kernel)
 Following reciprocal coordinates:   # in IRBZ
  0.000000  0.000000  0.000000    1.00000000   1 t-inv F


--------------------------------------------------------------------------------------------------------




 Dimension of arrays:
   k-points           NKPTS =      1   k-points in BZ     NKDIM =      1   number of bands    NBANDS=    392
   number of dos      NEDOS =    301   number of ions     NIONS =    128
   non local maximal  LDIM  =      5   non local SUM 2l+1 LMDIM =     13
   total plane-waves  NPLWV = 423360
   max r-space proj   IRMAX =      1   max aug-charges    IRDMAX=  21003
   dimension x,y,z NGX =    84 NGY =   72 NGZ =   70
   dimension x,y,z NGXF=   168 NGYF=  144 NGZF=  140
   support grid    NGXF=   168 NGYF=  144 NGZF=  140
   ions per type =              64  63   1
   NGX,Y,Z   is equivalent  to a cutoff of  10.94, 10.83, 11.23 a.u.
   NGXF,Y,Z  is equivalent  to a cutoff of  21.88, 21.65, 22.46 a.u.

 SYSTEM =  GaN                                     
 POSCAR =  C_N1                                    

 Startparameter for this run:
   NWRITE =      2    write-flag & timer
   PREC   = accura    normal or accurate (medium, high low for compatibility)
   ISTART =      0    job   : 0-new  1-cont  2-samecut
   ICHARG =      1    charge: 1-file 2-atom 10-const
   ISPIN  =      2    spin polarized calculation?
   LNONCOLLINEAR =      F non collinear calculations
   LSORBIT =      F    spin-orbit coupling
   INIWAV =      1    electr: 0-lowe 1-rand  2-diag
   LASPH  =      F    aspherical Exc in radial PAW
   METAGGA=      F    non-selfconsistent MetaGGA calc.

 Electronic Relaxation 1
   ENCUT  =  400.0 eV  29.40 Ry    5.42 a.u.  20.82 18.03 16.90*2*pi/ulx,y,z
   ENINI  =  400.0     initial cutoff
   ENAUG  =  644.9 eV  augmentation charge cutoff
   NELM   =     60;   NELMIN=  2; NELMDL= -5     # of ELM steps 
   EDIFF  = 0.1E-04   stopping-criterion for ELM
   LREAL  =      F    real-space projection
   NLSPLINE    = F    spline interpolate recip. space projectors
   LCOMPAT=      F    compatible to vasp.4.4
   GGA_COMPAT  = T    GGA compatible to vasp.4.4-vasp.4.6
   LMAXPAW     = -100 max onsite density
   LMAXMIX     =    2 max onsite mixed and CHGCAR
   VOSKOWN=      0    Vosko Wilk Nusair interpolation
   ROPT   =    0.00000   0.00000   0.00000
 Ionic relaxation
   EDIFFG = -.2E-01   stopping-criterion for IOM
   NSW    =      0    number of steps for IOM
   NBLOCK =      1;   KBLOCK =      1    inner block; outer block 
   IBRION =     -1    ionic relax: 0-MD 1-quasi-New 2-CG
   NFREE  =      0    steps in history (QN), initial steepest desc. (CG)
   ISIF   =      0    stress and relaxation
   IWAVPR =     10    prediction:  0-non 1-charg 2-wave 3-comb
   ISYM   =      3    0-nonsym 1-usesym 2-fastsym
   LCORR  =      T    Harris-Foulkes like correction to forces

   POTIM  = 0.5000    time-step for ionic-motion
   TEIN   =    0.0    initial temperature
   TEBEG  =    0.0;   TEEND  =   0.0 temperature during run
   SMASS  =  -3.00    Nose mass-parameter (am)
   estimated Nose-frequenzy (Omega)   =  0.10E-29 period in steps =****** mass=  -0.372E-26a.u.
   SCALEE = 1.0000    scale energy and forces
   NPACO  =    256;   APACO  = 16.0  distance and # of slots for P.C.
   PSTRESS=    0.0 pullay stress

  Mass of Ions in am
   POMASS =  69.72 14.00 12.01
  Ionic Valenz
   ZVAL   =   3.00  5.00  4.00
  Atomic Wigner-Seitz radii
   RWIGS  =  -1.00 -1.00 -1.00
  virtual crystal weights 
   VCA    =   1.00  1.00  1.00
   NELECT =     512.0000    total number of electrons
   NUPDOWN=      -1.0000    fix difference up-down

 DOS related values:
   EMIN   =  10.00;   EMAX   =-10.00  energy-range for DOS
   EFERMI =   0.00
   ISMEAR =     0;   SIGMA  =   0.05  broadening in eV -4-tet -1-fermi 0-gaus

 Electronic relaxation 2 (details)
   IALGO  =     53    algorithm
   LDIAG  =      T    sub-space diagonalisation (order eigenvalues)
   LSUBROT=      F    optimize rotation matrix (better conditioning)
   TURBO    =      0    0=normal 1=particle mesh
   IRESTART =      0    0=no restart 2=restart with 2 vectors
   NREBOOT  =      0    no. of reboots
   NMIN     =      0    reboot dimension
   EREF     =   0.00    reference energy to select bands
   IMIX   =      4    mixing-type and parameters
     AMIX     =   0.40;   BMIX     =  1.00
     AMIX_MAG =   1.60;   BMIX_MAG =  1.00
     AMIN     =   0.10
     WC   =   100.;   INIMIX=   1;  MIXPRE=   1;  MAXMIX= -45

 Intra band minimization:
   WEIMIN = 0.0000     energy-eigenvalue tresh-hold
   EBREAK =  0.64E-08  absolut break condition
   DEPER  =   0.30     relativ break condition  

   TIME   =   0.20     timestep for ELM

  volume/ion in A,a.u.               =      11.43        77.10
  Fermi-wavevector in a.u.,A,eV,Ry     =   1.153815  2.180394 18.113292  1.331289
  Thomas-Fermi vector in A             =   2.290456
 
 Write flags
   LWAVE        =      F    write WAVECAR
   LDOWNSAMPLE  =      F    k-point downsampling of WAVECAR
   LCHARG       =      T    write CHGCAR
   LVTOT        =      F    write LOCPOT, total local potential
   LVHAR        =      F    write LOCPOT, Hartree potential only
   LELF         =      F    write electronic localiz. function (ELF)
   LORBIT       =     10    0 simple, 1 ext, 2 COOP (PROOUT), +10 PAW based schemes


 Dipole corrections
   LMONO  =      F    monopole corrections only (constant potential shift)
   LDIPOL =      F    correct potential (dipole corrections)
   IDIPOL =      0    1-x, 2-y, 3-z, 4-all directions 
   EPSILON=  1.0000000 bulk dielectric constant

 Exchange correlation treatment:
   GGA     =    PE    GGA type
   LEXCH   =     8    internal setting for exchange type
   VOSKOWN=      0    Vosko Wilk Nusair interpolation
   EXXOEP  =     0    0=HF, 1=EXX-LHF (local Hartree Fock) 2=EXX OEP
   LHFCALC =     T    Hartree Fock is set to
   LSYMGRAD=     F    symmetrize gradient (conserves proper symmetry)
   PRECFOCK=fast      Normal, Fast or Accurate (Low or Medium for compatibility)
   LRHFCALC=     F    long range Hartree Fock
   LRSCOR  =     F    long range correlation only (use DFT for short range part)
   LTHOMAS =     F    Thomas Fermi screening in HF
   LMODELHF=     F    short range full HF, long range fraction AEXX
   ENCUT4O =  -1.0   cutoff for four orbital integrals eV
   LMAXFOCK=     4    L truncation for augmentation on plane wave grid
   LMAXFOCKAE=  -1    L truncation for all-electron charge restoration on plane wave grid
   NMAXFOCKAE=   1    number of basis functions for all-electron charge restoration
   LFOCKAEDFT=     F  apply the AE augmentation even for DFT
   NKREDX  =     1    reduce k-point grid by
   NKREDY  =     1    reduce k-point grid by
   NKREDZ  =     1    reduce k-point grid by
   SHIFTRED=     F    shift reduced grid of Gamma
   HFKIDENT=     F    idential grid for each k-point
   ODDONLY =     F    use only odd q-grid points
   EVENONLY=     F    use only even q-grid points
   HFALPHA =   -1.0000 decay constant for conv. correction
   MCALPHA =    0.0000 extent of test-charge in conv. correction in multipole expansion
   AEXX    =    0.3100 exact exchange contribution
   HFSCREEN=    0.2000 screening length (either q_TF or 0.3 A-1)
   HFSCREENC=   0.2000 screening length for correlation (either q_TF or 0.3 A-1)
   HFRCUT  =    0.0000 spherical cutoff for potential kernel
   ALDAX   =    0.6900 LDA exchange part
   AGGAX   =    0.6900 GGA exchange part
   ALDAC   =    1.0000 LDA correlation
   AGGAC   =    1.0000 GGA correlation
   ENCUTFOCK=  -1.0 apply spherical cutoff to Coloumb kernel
   NBANDSGWLOW=     1    first orbital included in HF term
   NBLOCK_FOCK=    64    blocking factor in FOCK_ACC
 Linear response parameters
   LEPSILON=     F    determine dielectric tensor
   LRPA    =     F    only Hartree local field effects (RPA)
   LNABLA  =     F    use nabla operator in PAW spheres
   LVEL    =     F    velocity operator in full k-point grid
   LINTERFAST=   F  fast interpolation
   KINTER  =     0    interpolate to denser k-point grid
   CSHIFT  =0.1000    complex shift for real part using Kramers Kronig
   OMEGAMAX=  -1.0    maximum frequency
   DEG_THRESHOLD= 0.2000000E-02 threshold for treating states as degnerate
   RTIME   =   -0.100 relaxation time in fs
  (WPLASMAI=    0.000 imaginary part of plasma frequency in eV, 0.658/RTIME)
   DFIELD  = 0.0000000 0.0000000 0.0000000 field for delta impulse in time
 
 Orbital magnetization related:
   ORBITALMAG=     F  switch on orbital magnetization
   LCHIMAG   =     F  perturbation theory with respect to B field
   DQ        =  0.001000  dq finite difference perturbation B field
   LLRAUG    =     F  two centre corrections for induced B field



--------------------------------------------------------------------------------------------------------


 Static calculation
 charge density and potential will be updated during run
 spin polarized calculation
 Conjugate gradient for all bands (Freysoldt, et al. PRB 79, 241103 (2009))
 perform sub-space diagonalisation
    before iterative eigenvector-optimisation
 modified Broyden-mixing scheme, WC =      100.0
 initial mixing is a Kerker type mixing with AMIX =  0.4000 and BMIX =      1.0000
 Hartree-type preconditioning will be used
 using additional bands          136
 reciprocal scheme for non local part
 use partial core corrections
 no Harris-corrections to forces 
 use gradient corrections 
 use of overlap-Matrix (Vanderbilt PP)
 Gauss-broadening in eV      SIGMA  =   0.05


--------------------------------------------------------------------------------------------------------


  energy-cutoff  :      400.00
  volume of cell :     1462.47
      direct lattice vectors                 reciprocal lattice vectors
    12.765778114  0.000000000  0.000000000     0.078334434  0.000000000  0.000000000
     0.000000000 11.055488149  0.000000000     0.000000000  0.090452813  0.000000000
     0.000000000  0.000000000 10.362404388     0.000000000  0.000000000  0.096502700

  length of vectors
    12.765778114 11.055488149 10.362404388     0.078334434  0.090452813  0.096502700


 
 k-points in units of 2pi/SCALE and weight: Automatic generation                    
   0.00000000  0.00000000  0.00000000       1.000
 
 k-points in reciprocal lattice and weights: Automatic generation                    
   0.00000000  0.00000000  0.00000000       1.000
 
 position of ions in fractional coordinates (direct lattice) 
   0.00000000  0.16665681  0.24853533
   0.12361616  0.08422726  0.00095825
   0.12407427  0.41614367  0.25006154
   0.00000000  0.33161176  0.00097173
   0.00000000  0.16664907  0.75381284
   0.12491046  0.08338011  0.50219453
   0.12498931  0.41692385  0.75077815
   0.00000000  0.33330473  0.50221110
   0.00000000  0.66692801  0.25031649
   0.12517841  0.58422593  0.00072740
   0.12496316  0.91776278  0.25010728
   0.00000000  0.83475447  0.00137292
   0.00000000  0.66690893  0.75081552
   0.12493906  0.58325800  0.50034945
   0.12510071  0.91647163  0.75075328
   0.00000000  0.83331558  0.50015575
   0.24907943  0.16601460  0.25010522
   0.37534082  0.08333607  0.00059897
   0.37468672  0.41634293  0.25030071
   0.24903348  0.33277611  0.00140116
   0.25010806  0.16652600  0.75073994
   0.37486381  0.08352702  0.50034230
   0.37478127  0.41639145  0.75084449
   0.24987285  0.33331418  0.50017167
   0.24985444  0.66667863  0.25039148
   0.37503177  0.58292740  0.00069702
   0.37484392  0.91676413  0.25055677
   0.25046913  0.83307750  0.00061091
   0.25003490  0.66664267  0.75050976
   0.37491650  0.58331708  0.50053219
   0.37493772  0.91670488  0.75059077
   0.24982150  0.83343231  0.50034158
   0.50000000  0.16652733  0.25038103
   0.62465919  0.08333607  0.00059897
   0.62531330  0.41634293  0.25030071
   0.50000000  0.33311565  0.00077333
   0.50000000  0.16659717  0.75049386
   0.62513621  0.08352702  0.50034230
   0.62521875  0.41639145  0.75084449
   0.50000000  0.33335381  0.50052806
   0.50000000  0.66658377  0.25051742
   0.62496824  0.58292740  0.00069702
   0.62515609  0.91676413  0.25055677
   0.50000000  0.83318606  0.00067791
   0.50000000  0.66659957  0.75067994
   0.62508351  0.58331708  0.50053219
   0.62506229  0.91670488  0.75059077
   0.50000000  0.83355626  0.50055107
   0.75092057  0.16601460  0.25010522
   0.87638385  0.08422726  0.00095825
   0.87592574  0.41614367  0.25006154
   0.75096652  0.33277611  0.00140116
   0.74989194  0.16652600  0.75073994
   0.87508956  0.08338011  0.50219453
   0.87501071  0.41692385  0.75077815
   0.75012715  0.33331418  0.50017167
   0.75014556  0.66667863  0.25039148
   0.87482160  0.58422593  0.00072740
   0.87503686  0.91776278  0.25010728
   0.74953087  0.83307750  0.00061091
   0.74996510  0.66664267  0.75050976
   0.87506096  0.58325800  0.50034945
   0.87489930  0.91647163  0.75075328
   0.75017850  0.83343231  0.50034158
   0.12586139  0.08265278  0.31507414
   0.12575856  0.41932388  0.06159713
   0.00000000  0.33438975  0.31507707
   0.00000000  0.16676801  0.56381235
   0.12642758  0.08226552  0.80971881
   0.12563047  0.41716100  0.56203249
   0.00000000  0.33515721  0.80970441
   0.00000000  0.66746223  0.06163783
   0.12506693  0.58343456  0.31173335
   0.12660880  0.91488140  0.06162284
   0.00000000  0.83339469  0.31151042
   0.00000000  0.66665104  0.56182951
   0.12521361  0.58384601  0.81164951
   0.12501821  0.91595302  0.56203045
   0.00000000  0.83319939  0.81209440
   0.25208692  0.16624589  0.06164928
   0.37513926  0.08324394  0.31177897
   0.37509907  0.41656705  0.06161311
   0.24991751  0.33315827  0.31147910
   0.25059779  0.16717114  0.56202547
   0.37544874  0.08308912  0.81160322
   0.37508113  0.41681048  0.56183109
   0.25011404  0.33328014  0.81211935
   0.25087186  0.66675927  0.06177276
   0.37505128  0.58311461  0.31174960
   0.37551430  0.91658190  0.06179258
   0.25015333  0.83310384  0.31177467
   0.25014716  0.66677268  0.56169541
   0.37512269  0.58312243  0.81170176
   0.37502380  0.91679790  0.56174981
   0.25047028  0.83287400  0.81160200
   0.50000000  0.16675732  0.06178311
   0.62486075  0.08324394  0.31177897
   0.62490094  0.41656705  0.06161311
   0.50000000  0.33328598  0.31171661
   0.50000000  0.16677677  0.56169374
   0.62455127  0.08308912  0.81160322
   0.62491888  0.41681048  0.56183109
   0.50000000  0.33322773  0.81174276
   0.50000000  0.66659557  0.06169626
   0.62494874  0.58311461  0.31174960
   0.62448571  0.91658190  0.06179258
   0.50000000  0.83320365  0.31177645
   0.50000000  0.66684643  0.56176785
   0.62487732  0.58312243  0.81170176
   0.62497621  0.91679790  0.56174981
   0.50000000  0.83315045  0.81171385
   0.74791308  0.16624589  0.06164928
   0.87413862  0.08265278  0.31507414
   0.87424146  0.41932388  0.06159713
   0.75008249  0.33315827  0.31147910
   0.74940221  0.16717114  0.56202547
   0.87357244  0.08226552  0.80971881
   0.87436955  0.41716100  0.56203249
   0.74988596  0.33328014  0.81211935
   0.74912814  0.66675927  0.06177276
   0.87493308  0.58343456  0.31173335
   0.87339121  0.91488140  0.06162284
   0.74984667  0.83310384  0.31177467
   0.74985284  0.66677268  0.56169541
   0.87478640  0.58384601  0.81164951
   0.87498180  0.91595302  0.56203045
   0.74952972  0.83287400  0.81160200
   0.00000000  0.16673082  0.06152573
 
 position of ions in cartesian coordinates  (Angst):
   0.00000000  1.84247238  2.57542361
   1.57805650  0.93117344  0.00992977
   1.58390461  4.60067136  2.59123877
   0.00000000  3.66612989  0.01006941
   0.00000000  1.84238678  7.81131346
   1.59457920  0.92180778  5.20394279
   1.59558574  4.60929668  7.77986676
   0.00000000  3.68484654  5.20411456
   0.00000000  7.37321471  2.59388068
   1.59799982  6.45890281  0.00753762
   1.59525191 10.14631554  2.59171274
   0.00000000  9.22861811  0.01422680
   0.00000000  7.37300375  7.78025399
   1.59494429  6.44820193  5.18482331
   1.59700796 10.13204128  7.77960905
   0.00000000  9.21271053  5.18281614
   3.17969276  1.83537242  2.59169142
   4.79151769  0.92132088  0.00620679
   4.78316749  4.60287428  2.59371720
   3.17910613  3.67900233  0.01451935
   3.19282394  1.84102622  7.77947087
   4.78542820  0.92343193  5.18474926
   4.78437450  4.60341073  7.78055420
   3.18982139  3.68495101  5.18298108
   3.18958630  7.37045771  2.59465778
   4.78757239  6.44454701  0.00722279
   4.78517433 10.13527497  2.59637061
   3.19743332  9.21007847  0.00633051
   3.19189006  7.37006012  7.77708567
   4.78610087  6.44885510  5.18671693
   4.78637176 10.13461998  7.77792511
   3.18916581  9.21400099  5.18474176
   6.38288906  1.84104094  2.59454946
   7.97426060  0.92132088  0.00620679
   7.98261080  4.60287428  2.59371720
   6.38288906  3.68275610  0.00801360
   6.38288906  1.84181299  7.77692087
   7.98035010  0.92343193  5.18474926
   7.98140379  4.60341073  7.78055420
   6.38288906  3.68538910  5.18667413
   6.38288906  7.36940902  2.59596286
   7.97820591  6.44454701  0.00722279
   7.98060396 10.13527497  2.59637061
   6.38288906  9.21127866  0.00702481
   6.38288906  7.36958365  7.77884909
   7.97967743  6.44885510  5.18671693
   7.97940654 10.13461998  7.77792511
   6.38288906  9.21537138  5.18691265
   9.58608536  1.83537242  2.59169142
  11.18772179  0.93117344  0.00992977
  11.18187368  4.60067136  2.59123877
   9.58667199  3.67900233  0.01451935
   9.57295417  1.84102622  7.77947087
  11.17119909  0.92180778  5.20394279
  11.17019256  4.60929668  7.77986676
   9.57595673  3.68495101  5.18298108
   9.57619182  7.37045771  2.59465778
  11.16777847  6.45890281  0.00753762
  11.17052638 10.14631554  2.59171274
   9.56834479  9.21007847  0.00633051
   9.57388806  7.37006012  7.77708567
  11.17083400  6.44820193  5.18482331
  11.16877033 10.13204128  7.77960905
   9.57661231  9.21400099  5.18474176
   1.60671861  0.91376678  3.26492563
   1.60540584  4.63583014  0.63829433
   0.00000000  3.69684189  3.26495601
   0.00000000  1.84370170  5.84245153
   1.61394639  0.90948552  8.39063373
   1.60377068  4.61191854  5.82400790
   0.00000000  3.70532658  8.39048450
   0.00000000  7.37912074  0.63871615
   1.59657667  6.45015387  3.23030699
   1.61625987 10.11446042  0.63856076
   0.00000000  9.21358517  3.22799698
   0.00000000  7.37015268  5.82190462
   1.59844918  6.45470264  8.41064046
   1.59595478 10.12630775  5.82398679
   0.00000000  9.21142598  8.41525062
   3.21808570  1.83792952  0.63883478
   4.78894459  0.92030244  3.23077972
   4.78843152  4.60535204  0.63845992
   3.19039152  3.68322728  3.22767242
   3.19907578  1.84815856  5.82393519
   4.79289533  0.91859080  8.41016078
   4.78820248  4.60804330  5.82192093
   3.19290039  3.68457459  8.41550912
   3.20257445  7.37134921  0.64011428
   4.78782137  6.44661668  3.23047540
   4.79373225 10.13326033  0.64031965
   3.19340191  9.21036958  3.23073521
   3.19332312  7.37149742  5.82051502
   4.78873305  6.44670308  8.41118191
   4.78747066 10.13564832  5.82107870
   3.19744805  9.20782861  8.41014809
   6.38288906  1.84358358  0.64022157
   7.97683370  0.92030244  3.23077972
   7.97734677  4.60535204  0.63845992
   6.38288906  3.68463921  3.23013355
   6.38288906  1.84379858  5.82049773
   7.97288296  0.91859080  8.41016078
   7.97757581  4.60804330  5.82192093
   6.38288906  3.68399526  8.41160675
   6.38288906  7.36953939  0.63932164
   7.97795692  6.44661668  3.23047540
   7.97204604 10.13326033  0.64031965
   6.38288906  9.21147311  3.23075364
   6.38288906  7.37231276  5.82126568
   7.97704524  6.44670308  8.41118191
   7.97830763 10.13564832  5.82107870
   6.38288906  9.21088493  8.41130720
   9.54769242  1.83792952  0.63883478
  11.15905968  0.91376678  3.26492563
  11.16037246  4.63583014  0.63829433
   9.57538660  3.68322728  3.22767242
   9.56670233  1.84815856  5.82393519
  11.15183191  0.90948552  8.39063373
  11.16200761  4.61191854  5.82400790
   9.57287772  3.68457459  8.41550912
   9.56320366  7.37134921  0.64011428
  11.16920162  6.45015387  3.23030699
  11.14951843 10.11446042  0.63856076
   9.57237620  9.21036958  3.23073521
   9.57245500  7.37149742  5.82051502
  11.16732912  6.45470264  8.41064046
  11.16982352 10.12630775  5.82398679
   9.56833007  9.20782861  8.41014809
   0.00000000  1.84329057  0.63755448
 


--------------------------------------------------------------------------------------------------------


 use parallel FFT for orbitals z direction half grid
 k-point  1 :   0.0000 0.0000 0.0000  plane waves:   13285

 maximum and minimum number of plane-waves per node :      1113     1104

 maximum number of plane-waves:     13285
 maximum index in each direction: 
   IXMAX=   20   IYMAX=   18   IZMAX=   16
   IXMIN=  -20   IYMIN=  -17   IZMIN=    0


 parallel 3D FFT for wavefunctions:
    minimum data exchange during FFTs selected (reduces bandwidth)
 parallel 3D FFT for charge:
    minimum data exchange during FFTs selected (reduces bandwidth)


 FFT grid for exact exchange (Hartree Fock) 
  NGX = 48; NGY = 40; NGZ = 36

 use parallel FFT for orbitals z direction half grid
 
 Radii for the augmentation spheres in the non-local exchange
 for species   1 augmentation radius   1.723 (default was   1.277)
       energy cutoff for augmentation   1600.0
 for species   2 augmentation radius   0.957 (default was   0.709)
       energy cutoff for augmentation   1600.0
 for species   3 augmentation radius   0.944 (default was   0.699)
       energy cutoff for augmentation   1600.0

 real space projection operators:
  total allocation   :      13437.38 KBytes
  max/ min on nodes  :       1218.84       1010.12

 Maximum index for augmentation-charges in exchange          117
  SETUP_FOCK is finished

 total amount of memory used by VASP MPI-rank0    48310. kBytes
=======================================================================

   base      :      30000. kBytes
   nonl-proj :       2643. kBytes
   fftplans  :       2292. kBytes
   grid      :       6428. kBytes
   one-center:         89. kBytes
   HF        :         67. kBytes
   nonlr-proj:       1241. kBytes
   wavefun   :       5550. kBytes
 
     INWAV:  cpu time    0.0000: real time    0.0003
 Broyden mixing: mesh for mixing (old mesh)
   NGX = 41   NGY = 37   NGZ = 33
  (NGX  =168   NGY  =144   NGZ  =140)
  gives a total of  50061 points

 initial charge density was supplied:
 charge density of overlapping atoms calculated
 number of electron     511.0000000 magnetization     128.0000000
 keeping initial charge density in first step


--------------------------------------------------------------------------------------------------------


 Maximum index for augmentation-charges          903 (set IRDMAX)


--------------------------------------------------------------------------------------------------------


 First call to EWALD:  gamma=   0.156
 Maximum number of real-space cells 2x 3x 3
 Maximum number of reciprocal cells 3x 3x 3

    FEWALD:  cpu time    0.0064: real time    0.0064


--------------------------------------- Iteration      1(   1)  ---------------------------------------


    POTLOK:  cpu time    0.1530: real time    0.1578
    SETDIJ:  cpu time    0.3014: real time    0.3023
    TRIAL :  cpu time    1.5225: real time    1.5317
    CORREC:  cpu time    0.0003: real time    0.0003
    --------------------------------------------
      LOOP:  cpu time    1.9805: real time    1.9956

 eigenvalue-minimisations  :  2352
 total energy-change (2. order) : 0.5333446E+04  (-0.2408811E+05)
 number of electron     511.0000000 magnetization     128.0000000
 augmentation part      511.0000000 magnetization     128.0000000

 Free energy of the ion-electron system (eV)
  ---------------------------------------------------
  alpha Z        PSCENC =      1811.19641174
  Ewald energy   TEWEN  =    -18300.39248825
  -Hartree energ DENC   =     -3921.68564084
  -exchange      EXHF   =         0.00000000
  -V(xc)+E(xc)   XCENC  =       -37.12228690
  PAW double counting   =     16990.97682306   -15872.65036388
  entropy T*S    EENTRO =        -0.01807674
  eigenvalues    EBANDS =      4358.43368095
  atomic energy  EATOM  =     20304.70784089
  ---------------------------------------------------
  free energy    TOTEN  =      5333.44590004 eV

  energy without entropy =     5333.46397678  energy(sigma->0) =     5333.45493841
  exchange ACFDT corr.  =         0.00000000  see jH, gK, PRB 81, 115126


--------------------------------------------------------------------------------------------------------




--------------------------------------- Iteration      1(   2)  ---------------------------------------


    TRIAL :  cpu time    1.8307: real time    1.8356
    CORREC:  cpu time    0.0003: real time    0.0003
    --------------------------------------------
      LOOP:  cpu time    1.8363: real time    1.8430

 eigenvalue-minimisations  :  3136
 total energy-change (2. order) :-0.3980710E+04  (-0.3551889E+04)
 number of electron     511.0000000 magnetization     128.0000000
 augmentation part      511.0000000 magnetization     128.0000000

 Free energy of the ion-electron system (eV)
  ---------------------------------------------------
  alpha Z        PSCENC =      1811.19641174
  Ewald energy   TEWEN  =    -18300.39248825
  -Hartree energ DENC   =     -3921.68564084
  -exchange      EXHF   =         0.00000000
  -V(xc)+E(xc)   XCENC  =       -37.12228690
  PAW double counting   =     16990.97682306   -15872.65036388
  entropy T*S    EENTRO =        -0.01752242
  eigenvalues    EBANDS =       377.72287057
  atomic energy  EATOM  =     20304.70784089
  ---------------------------------------------------
  free energy    TOTEN  =      1352.73564398 eV

  energy without entropy =     1352.75316641  energy(sigma->0) =     1352.74440520
  exchange ACFDT corr.  =         0.00000000  see jH, gK, PRB 81, 115126


--------------------------------------------------------------------------------------------------------




--------------------------------------- Iteration      1(   3)  ---------------------------------------


    TRIAL :  cpu time    1.8326: real time    1.8396
    CORREC:  cpu time    0.0001: real time    0.0001
    --------------------------------------------
      LOOP:  cpu time    1.8330: real time    1.8400

 eigenvalue-minimisations  :  3096
 total energy-change (2. order) :-0.8116208E+03  (-0.7554173E+03)
 number of electron     511.0000000 magnetization     128.0000000
 augmentation part      511.0000000 magnetization     128.0000000

 Free energy of the ion-electron system (eV)
  ---------------------------------------------------
  alpha Z        PSCENC =      1811.19641174
  Ewald energy   TEWEN  =    -18300.39248825
  -Hartree energ DENC   =     -3921.68564084
  -exchange      EXHF   =         0.00000000
  -V(xc)+E(xc)   XCENC  =       -37.12228690
  PAW double counting   =     16990.97682306   -15872.65036388
  entropy T*S    EENTRO =        -0.00000000
  eigenvalues    EBANDS =      -433.91547348
  atomic energy  EATOM  =     20304.70784089
  ---------------------------------------------------
  free energy    TOTEN  =       541.11482235 eV

  energy without entropy =      541.11482235  energy(sigma->0) =      541.11482235
  exchange ACFDT corr.  =         0.00000000  see jH, gK, PRB 81, 115126


--------------------------------------------------------------------------------------------------------




--------------------------------------- Iteration      1(   4)  ---------------------------------------


    TRIAL :  cpu time    1.8524: real time    1.8595
    CORREC:  cpu time    0.0001: real time    0.0001
    --------------------------------------------
      LOOP:  cpu time    1.8548: real time    1.8647

 eigenvalue-minimisations  :  3136
 total energy-change (2. order) :-0.1582036E+03  (-0.1541172E+03)
 number of electron     511.0000000 magnetization     128.0000000
 augmentation part      511.0000000 magnetization     128.0000000

 Free energy of the ion-electron system (eV)
  ---------------------------------------------------
  alpha Z        PSCENC =      1811.19641174
  Ewald energy   TEWEN  =    -18300.39248825
  -Hartree energ DENC   =     -3921.68564084
  -exchange      EXHF   =         0.00000000
  -V(xc)+E(xc)   XCENC  =       -37.12228690
  PAW double counting   =     16990.97682306   -15872.65036388
  entropy T*S    EENTRO =        -0.00000000
  eigenvalues    EBANDS =      -592.11909172
  atomic energy  EATOM  =     20304.70784089
  ---------------------------------------------------
  free energy    TOTEN  =       382.91120412 eV

  energy without entropy =      382.91120412  energy(sigma->0) =      382.91120412
  exchange ACFDT corr.  =         0.00000000  see jH, gK, PRB 81, 115126


--------------------------------------------------------------------------------------------------------




--------------------------------------- Iteration      1(   5)  ---------------------------------------


    TRIAL :  cpu time    1.8091: real time    1.8140
    CORREC:  cpu time    0.0001: real time    0.0001
    CHARGE:  cpu time    0.0455: real time    0.0460
    --------------------------------------------
      LOOP:  cpu time    1.8552: real time    1.8647

 eigenvalue-minimisations  :  3104
 total energy-change (2. order) :-0.3342260E+02  (-0.3269988E+02)
 number of electron     512.0000304 magnetization       0.0000007
 augmentation part       -7.2207003 magnetization       0.8579734

 Free energy of the ion-electron system (eV)
  ---------------------------------------------------
  alpha Z        PSCENC =      1811.19641174
  Ewald energy   TEWEN  =    -18300.39248825
  -Hartree energ DENC   =     -3921.68564084
  -exchange      EXHF   =         0.00000000
  -V(xc)+E(xc)   XCENC  =       -37.12228690
  PAW double counting   =     16990.97682306   -15872.65036388
  entropy T*S    EENTRO =        -0.00000000
  eigenvalues    EBANDS =      -625.54168734
  atomic energy  EATOM  =     20304.70784089
  ---------------------------------------------------
  free energy    TOTEN  =       349.48860850 eV

  energy without entropy =      349.48860850  energy(sigma->0) =      349.48860850
  exchange ACFDT corr.  =         0.00000000  see jH, gK, PRB 81, 115126


--------------------------------------------------------------------------------------------------------




--------------------------------------- Iteration      1(   6)  ---------------------------------------


    POTLOK:  cpu time    0.1450: real time    0.1493
    SETDIJ:  cpu time    0.3005: real time    0.3028
    TRIAL :  cpu time   10.4989: real time   10.5306
    CORREC:  cpu time    0.0005: real time    0.0005
    CHARGE:  cpu time    0.0464: real time    0.0465
    --------------------------------------------
      LOOP:  cpu time   10.9916: real time   11.0300

 eigenvalue-minimisations  :     0
 total energy-change (2. order) :-0.1304536E+04  (-0.1748813E+02)
 number of electron     512.0000292 magnetization       0.0000006
 augmentation part       -8.5221615 magnetization       0.7779821

 Free energy of the ion-electron system (eV)
  ---------------------------------------------------
  alpha Z        PSCENC =      1811.19641174
  Ewald energy   TEWEN  =    -18300.39248825
  -Hartree energ DENC   =     -5358.83364419
  -exchange      EXHF   =      1392.59007025
  -V(xc)+E(xc)   XCENC  =        47.03674591
  PAW double counting   =     76024.60051170   -74949.26355795
  entropy T*S    EENTRO =        -0.00000000
  eigenvalues    EBANDS =     -1926.68924042
  atomic energy  EATOM  =     20304.70784089
  ---------------------------------------------------
  free energy    TOTEN  =      -955.04735031 eV

  energy without entropy =     -955.04735031  energy(sigma->0) =     -955.04735031
  exchange ACFDT corr.  =        -0.00000000  see jH, gK, PRB 81, 115126


--------------------------------------------------------------------------------------------------------




--------------------------------------- Iteration      1(   7)  ---------------------------------------


    POTLOK:  cpu time    0.1438: real time    0.1485
    SETDIJ:  cpu time    0.3029: real time    0.3036
    TRIAL :  cpu time   10.6893: real time   10.7197
    CORREC:  cpu time    0.0003: real time    0.0003
    CHARGE:  cpu time    0.0464: real time    0.0465
    --------------------------------------------
      LOOP:  cpu time   11.1833: real time   11.2217

 eigenvalue-minimisations  :     0
 total energy-change (2. order) :-0.1399303E+02  (-0.1250831E+02)
 number of electron     512.0000278 magnetization       0.0000005
 augmentation part      -10.0544866 magnetization       0.6646827

 Free energy of the ion-electron system (eV)
  ---------------------------------------------------
  alpha Z        PSCENC =      1811.19641174
  Ewald energy   TEWEN  =    -18300.39248825
  -Hartree energ DENC   =     -5173.27880868
  -exchange      EXHF   =      1380.13209497
  -V(xc)+E(xc)   XCENC  =        36.37726732
  PAW double counting   =     76077.71704976   -75001.86637246
  entropy T*S    EENTRO =        -0.00000000
  eigenvalues    EBANDS =     -2103.63337251
  atomic energy  EATOM  =     20304.70784089
  ---------------------------------------------------
  free energy    TOTEN  =      -969.04037722 eV

  energy without entropy =     -969.04037722  energy(sigma->0) =     -969.04037722
  exchange ACFDT corr.  =        -0.00000000  see jH, gK, PRB 81, 115126


--------------------------------------------------------------------------------------------------------




--------------------------------------- Iteration      1(   8)  ---------------------------------------


    POTLOK:  cpu time    0.1442: real time    0.1487
    SETDIJ:  cpu time    0.2999: real time    0.3006
    TRIAL :  cpu time   10.7571: real time   10.7895
    CORREC:  cpu time    0.0003: real time    0.0002
    CHARGE:  cpu time    0.0461: real time    0.0462
    --------------------------------------------
      LOOP:  cpu time   11.2480: real time   11.2897

 eigenvalue-minimisations  :     0
 total energy-change (2. order) :-0.8229688E+01  (-0.3760759E+01)
 number of electron     512.0000269 magnetization       0.0000004
 augmentation part      -11.1353707 magnetization       0.5470992

 Free energy of the ion-electron system (eV)
  ---------------------------------------------------
  alpha Z        PSCENC =      1811.19641174
  Ewald energy   TEWEN  =    -18300.39248825
  -Hartree energ DENC   =     -4981.88441130
  -exchange      EXHF   =      1367.35850442
  -V(xc)+E(xc)   XCENC  =        25.09848211
  PAW double counting   =     75708.36762173   -74631.88390080
  entropy T*S    EENTRO =        -0.00000000
  eigenvalues    EBANDS =     -2279.83812557
  atomic energy  EATOM  =     20304.70784089
  ---------------------------------------------------
  free energy    TOTEN  =      -977.27006502 eV

  energy without entropy =     -977.27006502  energy(sigma->0) =     -977.27006502
  exchange ACFDT corr.  =        -0.00000000  see jH, gK, PRB 81, 115126


--------------------------------------------------------------------------------------------------------




--------------------------------------- Iteration      1(   9)  ---------------------------------------


    POTLOK:  cpu time    0.1450: real time    0.1498
    SETDIJ:  cpu time    0.3051: real time    0.3059
    TRIAL :  cpu time   10.7457: real time   10.7757
    CORREC:  cpu time    0.0002: real time    0.0002
    CHARGE:  cpu time    0.0461: real time    0.0462
    --------------------------------------------
      LOOP:  cpu time   11.2426: real time   11.2823

 eigenvalue-minimisations  :     0
 total energy-change (2. order) :-0.2015461E+01  (-0.1364985E+01)
 number of electron     512.0000266 magnetization       0.0000003
 augmentation part      -11.6379834 magnetization       0.4506961

 Free energy of the ion-electron system (eV)
  ---------------------------------------------------
  alpha Z        PSCENC =      1811.19641174
  Ewald energy   TEWEN  =    -18300.39248825
  -Hartree energ DENC   =     -4883.22043102
  -exchange      EXHF   =      1361.00942917
  -V(xc)+E(xc)   XCENC  =        18.92510346
  PAW double counting   =     74822.42640298   -73745.42029094
  entropy T*S    EENTRO =        -0.00000000
  eigenvalues    EBANDS =     -2368.51750372
  atomic energy  EATOM  =     20304.70784089
  ---------------------------------------------------
  free energy    TOTEN  =      -979.28552568 eV

  energy without entropy =     -979.28552568  energy(sigma->0) =     -979.28552568
  exchange ACFDT corr.  =        -0.00000000  see jH, gK, PRB 81, 115126


--------------------------------------------------------------------------------------------------------




--------------------------------------- Iteration      1(  10)  ---------------------------------------


    POTLOK:  cpu time    0.1446: real time    0.1496
    SETDIJ:  cpu time    0.3021: real time    0.3028
    TRIAL :  cpu time   10.7831: real time   10.8142
    CORREC:  cpu time    0.0003: real time    0.0003
    CHARGE:  cpu time    0.0460: real time    0.0461
    --------------------------------------------
      LOOP:  cpu time   11.2765: real time   11.3174

 eigenvalue-minimisations  :     0
 total energy-change (2. order) :-0.9112617E+00  (-0.1139351E+01)
 number of electron     512.0000266 magnetization       0.0000003
 augmentation part      -11.7529308 magnetization       0.3768513

 Free energy of the ion-electron system (eV)
  ---------------------------------------------------
  alpha Z        PSCENC =      1811.19641174
  Ewald energy   TEWEN  =    -18300.39248825
  -Hartree energ DENC   =     -4873.74371572
  -exchange      EXHF   =      1360.79677270
  -V(xc)+E(xc)   XCENC  =        17.87457630
  PAW double counting   =     73763.45080243   -72686.10740353
  entropy T*S    EENTRO =        -0.00000000
  eigenvalues    EBANDS =     -2377.97958393
  atomic energy  EATOM  =     20304.70784089
  ---------------------------------------------------
  free energy    TOTEN  =      -980.19678738 eV

  energy without entropy =     -980.19678738  energy(sigma->0) =     -980.19678738
  exchange ACFDT corr.  =        -0.00000000  see jH, gK, PRB 81, 115126


--------------------------------------------------------------------------------------------------------




--------------------------------------- Iteration      1(  11)  ---------------------------------------


    POTLOK:  cpu time    0.1428: real time    0.1473
    SETDIJ:  cpu time    0.3026: real time    0.3033
    TRIAL :  cpu time   10.7554: real time   10.7864
    CORREC:  cpu time    0.0002: real time    0.0002
    CHARGE:  cpu time    0.0461: real time    0.0462
    --------------------------------------------
      LOOP:  cpu time   11.2473: real time   11.2878

 eigenvalue-minimisations  :     0
 total energy-change (2. order) :-0.8540445E+00  (-0.6701136E+00)
 number of electron     512.0000268 magnetization       0.0000002
 augmentation part      -11.7007592 magnetization       0.3199741

 Free energy of the ion-electron system (eV)
  ---------------------------------------------------
  alpha Z        PSCENC =      1811.19641174
  Ewald energy   TEWEN  =    -18300.39248825
  -Hartree energ DENC   =     -4908.55662669
  -exchange      EXHF   =      1363.55861822
  -V(xc)+E(xc)   XCENC  =        19.48823258
  PAW double counting   =     72869.67419792   -71792.15082883
  entropy T*S    EENTRO =        -0.00000000
  eigenvalues    EBANDS =     -2348.57618942
  atomic energy  EATOM  =     20304.70784089
  ---------------------------------------------------
  free energy    TOTEN  =      -981.05083185 eV

  energy without entropy =     -981.05083185  energy(sigma->0) =     -981.05083185
  exchange ACFDT corr.  =        -0.00000000  see jH, gK, PRB 81, 115126


--------------------------------------------------------------------------------------------------------




--------------------------------------- Iteration      1(  12)  ---------------------------------------


    POTLOK:  cpu time    0.1446: real time    0.1492
    SETDIJ:  cpu time    0.3033: real time    0.3040
    TRIAL :  cpu time   10.7445: real time   10.7729
    CORREC:  cpu time    0.0003: real time    0.0003
    CHARGE:  cpu time    0.0460: real time    0.0461
    --------------------------------------------
      LOOP:  cpu time   11.2391: real time   11.2772

 eigenvalue-minimisations  :     0
 total energy-change (2. order) :-0.4634673E+00  (-0.2622723E+00)
 number of electron     512.0000270 magnetization       0.0000002
 augmentation part      -11.6201766 magnetization       0.2757207

 Free energy of the ion-electron system (eV)
  ---------------------------------------------------
  alpha Z        PSCENC =      1811.19641174
  Ewald energy   TEWEN  =    -18300.39248825
  -Hartree energ DENC   =     -4949.08013141
  -exchange      EXHF   =      1366.58950681
  -V(xc)+E(xc)   XCENC  =        21.57877250
  PAW double counting   =     72295.58383157   -71217.98572061
  entropy T*S    EENTRO =        -0.00000000
  eigenvalues    EBANDS =     -2313.71232239
  atomic energy  EATOM  =     20304.70784089
  ---------------------------------------------------
  free energy    TOTEN  =      -981.51429916 eV

  energy without entropy =     -981.51429916  energy(sigma->0) =     -981.51429916
  exchange ACFDT corr.  =        -0.00000000  see jH, gK, PRB 81, 115126


--------------------------------------------------------------------------------------------------------




--------------------------------------- Iteration      1(  13)  ---------------------------------------


    POTLOK:  cpu time    0.1432: real time    0.1435
    SETDIJ:  cpu time    0.3029: real time    0.3037
    TRIAL :  cpu time   10.7431: real time   10.7711
    CORREC:  cpu time    0.0002: real time    0.0002
    CHARGE:  cpu time    0.0495: real time    0.0496
    --------------------------------------------
      LOOP:  cpu time   11.2392: real time   11.2685

 eigenvalue-minimisations  :     0
 total energy-change (2. order) :-0.1691755E+00  (-0.1316636E+00)
 number of electron     512.0000270 magnetization       0.0000002
 augmentation part      -11.5636405 magnetization       0.2383540

 Free energy of the ion-electron system (eV)
  ---------------------------------------------------
  alpha Z        PSCENC =      1811.19641174
  Ewald energy   TEWEN  =    -18300.39248825
  -Hartree energ DENC   =     -4976.52366043
  -exchange      EXHF   =      1368.59541697
  -V(xc)+E(xc)   XCENC  =        23.04959780
  PAW double counting   =     72036.35478530   -70958.74303587
  entropy T*S    EENTRO =        -0.00000000
  eigenvalues    EBANDS =     -2289.92834285
  atomic energy  EATOM  =     20304.70784089
  ---------------------------------------------------
  free energy    TOTEN  =      -981.68347470 eV

  energy without entropy =     -981.68347470  energy(sigma->0) =     -981.68347470
  exchange ACFDT corr.  =        -0.00000000  see jH, gK, PRB 81, 115126


--------------------------------------------------------------------------------------------------------




--------------------------------------- Iteration      1(  14)  ---------------------------------------


    POTLOK:  cpu time    0.1476: real time    0.1527
    SETDIJ:  cpu time    0.3026: real time    0.3034
    TRIAL :  cpu time   10.8012: real time   10.8343
    CORREC:  cpu time    0.0003: real time    0.0003
    CHARGE:  cpu time    0.0458: real time    0.0459
    --------------------------------------------
      LOOP:  cpu time   11.2983: real time   11.3413

 eigenvalue-minimisations  :     0
 total energy-change (2. order) :-0.9891099E-01  (-0.1138332E+00)
 number of electron     512.0000271 magnetization       0.0000001
 augmentation part      -11.5428984 magnetization       0.2052942

 Free energy of the ion-electron system (eV)
  ---------------------------------------------------
  alpha Z        PSCENC =      1811.19641174
  Ewald energy   TEWEN  =    -18300.39248825
  -Hartree energ DENC   =     -4987.03812998
  -exchange      EXHF   =      1369.33539677
  -V(xc)+E(xc)   XCENC  =        23.64620075
  PAW double counting   =     72025.07554233   -70947.48335148
  entropy T*S    EENTRO =        -0.00000000
  eigenvalues    EBANDS =     -2280.82980846
  atomic energy  EATOM  =     20304.70784089
  ---------------------------------------------------
  free energy    TOTEN  =      -981.78238569 eV

  energy without entropy =     -981.78238569  energy(sigma->0) =     -981.78238569
  exchange ACFDT corr.  =        -0.00000000  see jH, gK, PRB 81, 115126


--------------------------------------------------------------------------------------------------------




--------------------------------------- Iteration      1(  15)  ---------------------------------------


    POTLOK:  cpu time    0.1422: real time    0.1469
    SETDIJ:  cpu time    0.2982: real time    0.3018
    TRIAL :  cpu time   10.8026: real time   10.8388
    CORREC:  cpu time    0.0003: real time    0.0002
    CHARGE:  cpu time    0.0457: real time    0.0459
    --------------------------------------------
      LOOP:  cpu time   11.2894: real time   11.3383

 eigenvalue-minimisations  :     0
 total energy-change (2. order) :-0.9150831E-01  (-0.8037928E-01)
 number of electron     512.0000271 magnetization       0.0000001
 augmentation part      -11.5462043 magnetization       0.1759567

 Free energy of the ion-electron system (eV)
  ---------------------------------------------------
  alpha Z        PSCENC =      1811.19641174
  Ewald energy   TEWEN  =    -18300.39248825
  -Hartree energ DENC   =     -4984.51057127
  -exchange      EXHF   =      1369.12211320
  -V(xc)+E(xc)   XCENC  =        23.54909915
  PAW double counting   =     72162.46120677   -71084.90413390
  entropy T*S    EENTRO =        -0.00000000
  eigenvalues    EBANDS =     -2283.10337234
  atomic energy  EATOM  =     20304.70784089
  ---------------------------------------------------
  free energy    TOTEN  =      -981.87389401 eV

  energy without entropy =     -981.87389401  energy(sigma->0) =     -981.87389401
  exchange ACFDT corr.  =         0.00000000  see jH, gK, PRB 81, 115126


[...]
      9.58667      3.67900      0.01452        -0.003749     -0.002090      0.010407
      9.57295      1.84103      7.77947         0.002339      0.004022      0.005837
     11.17120      0.92181      5.20394         0.010695      0.007692      0.001051
     11.17019      4.60930      7.77987        -0.004575     -0.001983      0.008104
      9.57596      3.68495      5.18298         0.002416     -0.003683     -0.002949
      9.57619      7.37046      2.59466        -0.002357      0.001506     -0.000906
     11.16778      6.45890      0.00754         0.008702     -0.006833      0.008038
     11.17053     10.14632      2.59171        -0.006233      0.002268      0.003821
      9.56834      9.21008      0.00633         0.006610      0.010180      0.004583
      9.57389      7.37006      7.77709        -0.008098      0.003036     -0.002548
     11.17083      6.44820      5.18482        -0.007208     -0.006743     -0.005011
     11.16877     10.13204      7.77961        -0.006117      0.004007      0.005677
      9.57661      9.21400      5.18474        -0.001621      0.004203     -0.005894
      1.60672      0.91377      3.26493        -0.011297     -0.000850      0.009811
      1.60541      4.63583      0.63829        -0.011956      0.004750      0.005259
      0.00000      3.69684      3.26496         0.000000     -0.007519      0.009271
      0.00000      1.84370      5.84245         0.000000      0.002699      0.011739
      1.61395      0.90949      8.39063        -0.001733     -0.006116      0.013871
      1.60377      4.61192      5.82401        -0.002707      0.011483      0.004749
      0.00000      3.70533      8.39048         0.000000      0.008547      0.014737
      0.00000      7.37912      0.63872         0.000000      0.005127     -0.010426
      1.59658      6.45015      3.23031        -0.002956      0.001636      0.000584
      1.61626     10.11446      0.63856        -0.001786      0.013922      0.006787
      0.00000      9.21359      3.22800         0.000000      0.007663      0.003134
      0.00000      7.37015      5.82190         0.000000      0.004631     -0.009428
      1.59845      6.45470      8.41064         0.000666      0.005663     -0.002561
      1.59595     10.12631      5.82399        -0.001543     -0.006374      0.002982
      0.00000      9.21143      8.41525         0.000000      0.003838     -0.002679
      3.21809      1.83793      0.63883        -0.012631     -0.000116      0.006121
      4.78894      0.92030      3.23078        -0.000633     -0.001950     -0.001248
      4.78843      4.60535      0.63846         0.004245     -0.001759     -0.004599
      3.19039      3.68323      3.22767        -0.006415      0.000369     -0.000194
      3.19908      1.84816      5.82394        -0.000375      0.002090      0.002516
      4.79290      0.91859      8.41016         0.002346     -0.002931     -0.003973
      4.78820      4.60804      5.82192         0.001588      0.000790     -0.007757
      3.19290      3.68457      8.41551        -0.004361      0.001220     -0.001331
      3.20257      7.37135      0.64011         0.001221      0.001476     -0.006368
      4.78782      6.44662      3.23048         0.002522     -0.003857     -0.000877
      4.79373     10.13326      0.64032         0.002854     -0.001530     -0.006938
      3.19340      9.21037      3.23074        -0.001390     -0.002915     -0.001081
      3.19332      7.37150      5.82052        -0.000615     -0.001427     -0.012760
      4.78873      6.44670      8.41118         0.004418     -0.004534     -0.005706
      4.78747     10.13565      5.82108         0.002195      0.001597     -0.011233
      3.19745      9.20783      8.41015         0.003535     -0.004863     -0.003599
      6.38289      1.84358      0.64022         0.000000     -0.003612     -0.004656
      7.97683      0.92030      3.23078         0.000633     -0.001950     -0.001248
      7.97735      4.60535      0.63846        -0.004245     -0.001759     -0.004599
      6.38289      3.68464      3.23013         0.000000     -0.001733      0.002964
      6.38289      1.84380      5.82050         0.000000      0.008595     -0.013641
      7.97288      0.91859      8.41016        -0.002346     -0.002931     -0.003973
      7.97758      4.60804      5.82192        -0.001588      0.000790     -0.007757
      6.38289      3.68400      8.41161         0.000000     -0.005335     -0.007512
      6.38289      7.36954      0.63932         0.000000     -0.013392      0.000143
      7.97796      6.44662      3.23048        -0.002522     -0.003857     -0.000877
      7.97205     10.13326      0.64032        -0.002854     -0.001530     -0.006938
      6.38289      9.21147      3.23075         0.000000     -0.015472      0.000153
      6.38289      7.37231      5.82127         0.000000      0.000250     -0.007969
      7.97705      6.44670      8.41118        -0.004418     -0.004534     -0.005706
      7.97831     10.13565      5.82108        -0.002195      0.001597     -0.011233
      6.38289      9.21088      8.41131         0.000000     -0.013447     -0.010430
      9.54769      1.83793      0.63883         0.012631     -0.000116      0.006121
     11.15906      0.91377      3.26493         0.011297     -0.000850      0.009811
     11.16037      4.63583      0.63829         0.011956      0.004750      0.005259
      9.57539      3.68323      3.22767         0.006415      0.000369     -0.000194
      9.56670      1.84816      5.82394         0.000375      0.002090      0.002516
     11.15183      0.90949      8.39063         0.001733     -0.006116      0.013871
     11.16201      4.61192      5.82401         0.002707      0.011483      0.004749
      9.57288      3.68457      8.41551         0.004361      0.001220     -0.001331
      9.56320      7.37135      0.64011        -0.001221      0.001476     -0.006368
     11.16920      6.45015      3.23031         0.002956      0.001636      0.000584
     11.14952     10.11446      0.63856         0.001786      0.013922      0.006787
      9.57238      9.21037      3.23074         0.001390     -0.002915     -0.001081
      9.57245      7.37150      5.82052         0.000615     -0.001427     -0.012760
     11.16733      6.45470      8.41064        -0.000666      0.005663     -0.002561
     11.16982     10.12631      5.82399         0.001543     -0.006374      0.002982
      9.56833      9.20783      8.41015        -0.003535     -0.004863     -0.003599
      0.00000      1.84329      0.63755         0.000000      0.006597      0.010653
 -----------------------------------------------------------------------------------
    total drift:                               -0.000310     -0.014383     -1.277746


--------------------------------------------------------------------------------------------------------



  FREE ENERGIE OF THE ION-ELECTRON SYSTEM (eV)
  ---------------------------------------------------
  free  energy   TOTEN  =      -981.98883595 eV

  energy  without entropy=     -981.98883595  energy(sigma->0) =     -981.98883595
 


--------------------------------------------------------------------------------------------------------


    POTLOK:  cpu time    0.4528: real time    0.4540


--------------------------------------------------------------------------------------------------------


     LOOP+:  cpu time  424.3076: real time  425.7208
    4ORBIT:  cpu time    0.0000: real time    0.0000
 


 total charge     
 
# of ion       s       p       d       tot
------------------------------------------
    1        1.082   1.528   0.404   3.015
    2        1.087   1.540   0.410   3.037
    3        1.049   1.507   0.430   2.986
    4        1.087   1.537   0.408   3.031
    5        1.045   1.493   0.426   2.964
    6        1.052   1.519   0.436   3.008
    7        1.052   1.523   0.438   3.013
    8        1.052   1.519   0.436   3.007
    9        1.051   1.513   0.433   2.997
   10        1.054   1.525   0.438   3.017
   11        1.049   1.507   0.430   2.986
   12        1.050   1.510   0.432   2.992
   13        1.051   1.516   0.434   3.001
   14        1.051   1.516   0.434   3.000
   15        1.053   1.523   0.438   3.014
   16        1.051   1.515   0.434   3.000
   17        1.049   1.508   0.430   2.988
   18        1.055   1.531   0.442   3.027
   19        1.051   1.514   0.433   2.998
   20        1.049   1.507   0.430   2.986
   21        1.053   1.524   0.438   3.015
   22        1.051   1.517   0.435   3.003
   23        1.051   1.516   0.434   3.001
   24        1.051   1.516   0.434   3.001
   25        1.051   1.515   0.434   3.000
   26        1.052   1.520   0.436   3.009
   27        1.051   1.515   0.434   2.999
   28        1.055   1.531   0.441   3.027
   29        1.052   1.520   0.436   3.009
   30        1.051   1.515   0.434   3.000
   31        1.052   1.518   0.435   3.005
   32        1.051   1.517   0.434   3.003
   33        1.051   1.516   0.434   3.001
   34        1.055   1.531   0.442   3.027
   35        1.051   1.514   0.433   2.998
   36        1.052   1.517   0.435   3.004
   37        1.052   1.521   0.436   3.010
   38        1.051   1.517   0.435   3.003
   39        1.051   1.516   0.434   3.001
   40        1.051   1.515   0.434   2.999
   41        1.051   1.514   0.433   2.997
   42        1.052   1.520   0.436   3.009
   43        1.051   1.515   0.434   2.999
   44        1.053   1.523   0.437   3.013
   45        1.051   1.516   0.434   3.002
   46        1.051   1.515   0.434   3.000
   47        1.052   1.518   0.435   3.005
   48        1.051   1.515   0.434   3.000
   49        1.049   1.508   0.430   2.988
   50        1.087   1.540   0.410   3.037
   51        1.049   1.507   0.430   2.986
   52        1.049   1.507   0.430   2.986
   53        1.053   1.524   0.438   3.015
   54        1.052   1.519   0.436   3.008
   55        1.052   1.523   0.438   3.013
   56        1.051   1.516   0.434   3.001
   57        1.051   1.515   0.434   3.000
   58        1.054   1.525   0.438   3.017
   59        1.049   1.507   0.430   2.986
   60        1.055   1.531   0.441   3.027
   61        1.052   1.520   0.436   3.009
   62        1.051   1.516   0.434   3.000
   63        1.053   1.523   0.438   3.014
   64        1.051   1.517   0.434   3.003
   65        1.233   2.483   0.000   3.716
   66        1.233   2.484   0.000   3.717
   67        1.233   2.483   0.000   3.716
   68        1.232   2.482   0.000   3.714
   69        1.233   2.486   0.000   3.719
   70        1.232   2.486   0.000   3.718
   71        1.233   2.486   0.000   3.719
   72        1.232   2.484   0.000   3.717
   73        1.232   2.483   0.000   3.716
   74        1.233   2.484   0.000   3.717
   75        1.232   2.483   0.000   3.715
   76        1.232   2.484   0.000   3.716
   77        1.232   2.485   0.000   3.718
   78        1.232   2.486   0.000   3.718
   79        1.232   2.484   0.000   3.716
   80        1.233   2.485   0.000   3.718
   81        1.232   2.484   0.000   3.716
   82        1.232   2.484   0.000   3.717
   83        1.232   2.483   0.000   3.715
   84        1.232   2.486   0.000   3.719
   85        1.232   2.486   0.000   3.718
   86        1.232   2.484   0.000   3.716
   87        1.232   2.484   0.000   3.716
   88        1.232   2.488   0.000   3.720
   89        1.232   2.484   0.000   3.716
   90        1.232   2.486   0.000   3.718
   91        1.232   2.484   0.000   3.716
   92        1.232   2.485   0.000   3.717
   93        1.232   2.485   0.000   3.717
   94        1.232   2.484   0.000   3.716
   95        1.232   2.486   0.000   3.718
   96        1.232   2.489   0.000   3.721
   97        1.232   2.484   0.000   3.716
   98        1.232   2.484   0.000   3.717
   99        1.232   2.483   0.000   3.716
  100        1.232   2.485   0.000   3.717
  101        1.232   2.486   0.000   3.718
  102        1.232   2.484   0.000   3.716
  103        1.232   2.484   0.000   3.717
  104        1.232   2.485   0.000   3.717
  105        1.232   2.484   0.000   3.716
  106        1.232   2.486   0.000   3.718
  107        1.232   2.484   0.000   3.716
  108        1.232   2.484   0.000   3.716
  109        1.232   2.485   0.000   3.717
  110        1.232   2.484   0.000   3.716
  111        1.232   2.484   0.000   3.717
  112        1.233   2.485   0.000   3.718
  113        1.233   2.483   0.000   3.716
  114        1.233   2.484   0.000   3.717
  115        1.232   2.483   0.000   3.715
  116        1.232   2.486   0.000   3.719
  117        1.233   2.486   0.000   3.719
  118        1.232   2.486   0.000   3.718
  119        1.232   2.484   0.000   3.716
  120        1.232   2.488   0.000   3.720
  121        1.232   2.483   0.000   3.716
  122        1.233   2.484   0.000   3.717
  123        1.232   2.484   0.000   3.716
  124        1.232   2.485   0.000   3.717
  125        1.232   2.485   0.000   3.718
  126        1.232   2.486   0.000   3.718
  127        1.232   2.486   0.000   3.718
  128        0.830   1.636   0.000   2.466
--------------------------------------------------
tot        145.901 255.318  27.716 428.935
 


 magnetization (x)
 
# of ion       s       p       d       tot
------------------------------------------
    1       -0.000  -0.000   0.000  -0.000
    2       -0.000  -0.000   0.000  -0.000
    3       -0.000  -0.000  -0.000  -0.000
    4       -0.000  -0.000   0.000  -0.000
    5       -0.000  -0.000  -0.000  -0.000
    6       -0.000  -0.000  -0.000  -0.000
    7       -0.000  -0.000  -0.000  -0.000
    8       -0.000  -0.000  -0.000  -0.000
    9       -0.000  -0.000  -0.000  -0.000
   10       -0.000  -0.000  -0.000  -0.000
   11       -0.000  -0.000   0.000  -0.000
   12       -0.000  -0.000  -0.000  -0.000
   13       -0.000  -0.000  -0.000  -0.000
   14       -0.000  -0.000  -0.000  -0.000
   15       -0.000  -0.000  -0.000  -0.000
   16       -0.000  -0.000  -0.000  -0.000
   17       -0.000  -0.000  -0.000  -0.000
   18       -0.000  -0.000  -0.000  -0.000
   19       -0.000  -0.000  -0.000  -0.000
   20       -0.000  -0.000  -0.000  -0.000
   21       -0.000  -0.000  -0.000  -0.000
   22       -0.000  -0.000  -0.000  -0.000
   23       -0.000  -0.000  -0.000  -0.000
   24       -0.000  -0.000  -0.000  -0.000
   25       -0.000  -0.000  -0.000  -0.000
   26       -0.000  -0.000   0.000  -0.000
   27       -0.000  -0.000  -0.000  -0.000
   28       -0.000  -0.000  -0.000  -0.000
   29       -0.000  -0.000  -0.000  -0.000
   30       -0.000  -0.000  -0.000  -0.000
   31       -0.000  -0.000  -0.000  -0.000
   32       -0.000  -0.000  -0.000  -0.000
   33       -0.000  -0.000  -0.000  -0.000
   34       -0.000  -0.000  -0.000  -0.000
   35       -0.000  -0.000  -0.000  -0.000
   36       -0.000  -0.000  -0.000  -0.000
   37       -0.000  -0.000  -0.000  -0.000
   38       -0.000  -0.000  -0.000  -0.000
   39       -0.000  -0.000  -0.000  -0.000
   40       -0.000  -0.000  -0.000  -0.000
   41       -0.000  -0.000  -0.000  -0.000
   42       -0.000  -0.000  -0.000  -0.000
   43       -0.000  -0.000  -0.000  -0.000
   44       -0.000  -0.000  -0.000  -0.000
   45       -0.000  -0.000  -0.000  -0.000
   46       -0.000  -0.000  -0.000  -0.000
   47       -0.000  -0.000  -0.000  -0.000
   48       -0.000  -0.000  -0.000  -0.000
   49       -0.000  -0.000  -0.000  -0.000
   50       -0.000  -0.000   0.000  -0.000
   51       -0.000  -0.000  -0.000  -0.000
   52       -0.000  -0.000  -0.000  -0.000
   53       -0.000  -0.000  -0.000  -0.000
   54       -0.000  -0.000  -0.000  -0.000
   55       -0.000  -0.000  -0.000  -0.000
   56       -0.000  -0.000  -0.000  -0.000
   57       -0.000  -0.000  -0.000  -0.000
   58       -0.000  -0.000  -0.000  -0.000
   59       -0.000  -0.000  -0.000  -0.000
   60       -0.000  -0.000  -0.000  -0.000
   61       -0.000  -0.000  -0.000  -0.000
   62       -0.000  -0.000  -0.000  -0.000
   63       -0.000  -0.000   0.000  -0.000
   64       -0.000  -0.000  -0.000  -0.000
   65        0.000   0.000   0.000   0.000
   66        0.000   0.000   0.000   0.000
   67        0.000   0.000   0.000   0.000
   68        0.000   0.000   0.000   0.000
   69        0.000   0.000   0.000   0.000
   70        0.000   0.000   0.000   0.000
   71        0.000   0.000   0.000   0.000
   72        0.000   0.000   0.000   0.000
   73        0.000   0.000   0.000   0.000
   74        0.000   0.000   0.000   0.000
   75        0.000   0.000   0.000   0.000
   76        0.000   0.000   0.000   0.000
   77        0.000   0.000   0.000   0.000
   78        0.000   0.000   0.000   0.000
   79        0.000   0.000   0.000   0.000
   80        0.000   0.000   0.000   0.000
   81        0.000   0.000   0.000   0.000
   82        0.000   0.000   0.000   0.000
   83        0.000   0.000   0.000   0.000
   84        0.000   0.000   0.000   0.000
   85        0.000   0.000   0.000   0.001
   86        0.000   0.000   0.000   0.000
   87        0.000   0.000   0.000   0.000
   88        0.000   0.000   0.000   0.000
   89        0.000   0.000   0.000   0.000
   90        0.000   0.000   0.000   0.000
   91        0.000   0.000   0.000   0.000
   92        0.000   0.000   0.000   0.000
   93        0.000   0.000   0.000   0.000
   94        0.000   0.000   0.000   0.000
   95        0.000   0.000   0.000   0.000
   96        0.000   0.000   0.000   0.000
   97        0.000   0.000   0.000   0.000
   98        0.000   0.000   0.000   0.000
   99        0.000   0.000   0.000   0.000
  100        0.000   0.000   0.000   0.000
  101        0.000   0.000   0.000   0.001
  102        0.000   0.000   0.000   0.000
  103        0.000   0.000   0.000   0.000
  104        0.000   0.000   0.000   0.000
  105        0.000   0.000   0.000   0.000
  106        0.000   0.000   0.000   0.000
  107        0.000   0.000   0.000   0.000
  108        0.000   0.000   0.000   0.000
  109        0.000   0.000   0.000   0.000
  110        0.000   0.000   0.000   0.000
  111        0.000   0.000   0.000   0.000
  112        0.000   0.000   0.000   0.000
  113        0.000   0.000   0.000   0.000
  114        0.000   0.000   0.000   0.000
  115        0.000   0.000   0.000   0.000
  116        0.000   0.000   0.000   0.000
  117        0.000   0.000   0.000   0.000
  118        0.000   0.000   0.000   0.000
  119        0.000   0.000   0.000   0.000
  120        0.000   0.000   0.000   0.000
  121        0.000   0.000   0.000   0.000
  122        0.000   0.000   0.000   0.000
  123        0.000   0.000   0.000   0.000
  124        0.000   0.000   0.000   0.000
  125        0.000   0.000   0.000   0.000
  126        0.000   0.000   0.000   0.000
  127        0.000   0.000   0.000   0.000
  128        0.000   0.000   0.000   0.000
--------------------------------------------------
tot         -0.006   0.009  -0.000   0.002
 

 total amount of memory used by VASP MPI-rank0    48310. kBytes
=======================================================================

   base      :      30000. kBytes
   nonl-proj :       2643. kBytes
   fftplans  :       2292. kBytes
   grid      :       6428. kBytes
   one-center:         89. kBytes
   HF        :         67. kBytes
   nonlr-proj:       1241. kBytes
   wavefun   :       5550. kBytes
 
  
  
 General timing and accounting informations for this job:
 ========================================================
  
                  Total CPU time used (sec):      444.869
                            User time (sec):      411.027
                          System time (sec):       33.842
                         Elapsed time (sec):      450.353
  
                   Maximum memory used (kb):      546284.
                   Average memory used (kb):           0.
  
                          Minor page faults:       166179
                          Major page faults:            0
                 Voluntary context switches:         3108
