GaN                                     
           1
    12.765778    0.000000    0.000000
     0.000000   11.055488    0.000000
     0.000000    0.000000   10.362404
   Ga   N    C 
  64  63   1
Direct configuration=     1
   0.00000000  0.16665681  0.24853533
   0.12361616  0.08422726  0.00095825
   0.12407427  0.41614367  0.25006154
   0.00000000  0.33161176  0.00097173
   0.00000000  0.16664907  0.75381284
   0.12491046  0.08338011  0.50219453
   0.12498931  0.41692385  0.75077815
   0.00000000  0.33330473  0.50221110
   0.00000000  0.66692801  0.25031649
   0.12517841  0.58422593  0.00072740
   0.12496316  0.91776278  0.25010728
   0.00000000  0.83475447  0.00137292
   0.00000000  0.66690893  0.75081552
   0.12493906  0.58325800  0.50034945
   0.12510071  0.91647163  0.75075328
   0.00000000  0.83331558  0.50015575
   0.24907943  0.16601460  0.25010522
   0.37534082  0.08333607  0.00059897
   0.37468672  0.41634293  0.25030071
   0.24903348  0.33277611  0.00140116
   0.25010806  0.16652600  0.75073994
   0.37486381  0.08352702  0.50034230
   0.37478127  0.41639145  0.75084449
   0.24987285  0.33331418  0.50017167
   0.24985444  0.66667863  0.25039148
   0.37503177  0.58292740  0.00069702
   0.37484392  0.91676413  0.25055677
   0.25046913  0.83307750  0.00061091
   0.25003490  0.66664267  0.75050976
   0.37491650  0.58331708  0.50053219
   0.37493772  0.91670488  0.75059077
   0.24982150  0.83343231  0.50034158
   0.50000000  0.16652733  0.25038103
   0.62465919  0.08333607  0.00059897
   0.62531330  0.41634293  0.25030071
   0.50000000  0.33311565  0.00077333
   0.50000000  0.16659717  0.75049386
   0.62513621  0.08352702  0.50034230
   0.62521875  0.41639145  0.75084449
   0.50000000  0.33335381  0.50052806
   0.50000000  0.66658377  0.25051742
   0.62496824  0.58292740  0.00069702
   0.62515609  0.91676413  0.25055677
   0.50000000  0.83318606  0.00067791
   0.50000000  0.66659957  0.75067994
   0.62508351  0.58331708  0.50053219
   0.62506229  0.91670488  0.75059077
   0.50000000  0.83355626  0.50055107
   0.75092057  0.16601460  0.25010522
   0.87638385  0.08422726  0.00095825
   0.87592574  0.41614367  0.25006154
   0.75096652  0.33277611  0.00140116
   0.74989194  0.16652600  0.75073994
   0.87508956  0.08338011  0.50219453
   0.87501071  0.41692385  0.75077815
   0.75012715  0.33331418  0.50017167
   0.75014556  0.66667863  0.25039148
   0.87482160  0.58422593  0.00072740
   0.87503686  0.91776278  0.25010728
   0.74953087  0.83307750  0.00061091
   0.74996510  0.66664267  0.75050976
   0.87506096  0.58325800  0.50034945
   0.87489930  0.91647163  0.75075328
   0.75017850  0.83343231  0.50034158
   0.12586139  0.08265278  0.31507414
   0.12575856  0.41932388  0.06159713
   0.00000000  0.33438975  0.31507707
   0.00000000  0.16676801  0.56381235
   0.12642758  0.08226552  0.80971881
   0.12563047  0.41716100  0.56203249
   0.00000000  0.33515721  0.80970441
   0.00000000  0.66746223  0.06163783
   0.12506693  0.58343456  0.31173335
   0.12660880  0.91488140  0.06162284
   0.00000000  0.83339469  0.31151042
   0.00000000  0.66665104  0.56182951
   0.12521361  0.58384601  0.81164951
   0.12501821  0.91595302  0.56203045
   0.00000000  0.83319939  0.81209440
   0.25208692  0.16624589  0.06164928
   0.37513926  0.08324394  0.31177897
   0.37509907  0.41656705  0.06161311
   0.24991751  0.33315827  0.31147910
   0.25059779  0.16717114  0.56202547
   0.37544874  0.08308912  0.81160322
   0.37508113  0.41681048  0.56183109
   0.25011404  0.33328014  0.81211935
   0.25087186  0.66675927  0.06177276
   0.37505128  0.58311461  0.31174960
   0.37551430  0.91658190  0.06179258
   0.25015333  0.83310384  0.31177467
   0.25014716  0.66677268  0.56169541
   0.37512269  0.58312243  0.81170176
   0.37502380  0.91679790  0.56174981
   0.25047028  0.83287400  0.81160200
   0.50000000  0.16675732  0.06178311
   0.62486075  0.08324394  0.31177897
   0.62490094  0.41656705  0.06161311
   0.50000000  0.33328598  0.31171661
   0.50000000  0.16677677  0.56169374
   0.62455127  0.08308912  0.81160322
   0.62491888  0.41681048  0.56183109
   0.50000000  0.33322773  0.81174276
   0.50000000  0.66659557  0.06169626
   0.62494874  0.58311461  0.31174960
   0.62448571  0.91658190  0.06179258
   0.50000000  0.83320365  0.31177645
   0.50000000  0.66684643  0.56176785
   0.62487732  0.58312243  0.81170176
   0.62497621  0.91679790  0.56174981
   0.50000000  0.83315045  0.81171385
   0.74791308  0.16624589  0.06164928
   0.87413862  0.08265278  0.31507414
   0.87424146  0.41932388  0.06159713
   0.75008249  0.33315827  0.31147910
   0.74940221  0.16717114  0.56202547
   0.87357244  0.08226552  0.80971881
   0.87436955  0.41716100  0.56203249
   0.74988596  0.33328014  0.81211935
   0.74912814  0.66675927  0.06177276
   0.87493308  0.58343456  0.31173335
   0.87339121  0.91488140  0.06162284
   0.74984667  0.83310384  0.31177467
   0.74985284  0.66677268  0.56169541
   0.87478640  0.58384601  0.81164951
   0.87498180  0.91595302  0.56203045
   0.74952972  0.83287400  0.81160200
   0.00000000  0.16673082  0.06152573
