  192  192    1    2
  0.2007906E+02  0.1640400E-08  0.1533138E-08  0.1533138E-08  0.5000000E-15
  1.000000000000000E-004
  CAR 
 unknown system                          
   1728      1   1136
 
  0.0000000E+00  0.0000000E+00  0.0000000E+00  0.1000000E+01
    1      -25.011584    -25.011609   1.000000   1.000000
    2      -25.011295    -25.011319   1.000000   1.000000
    3      -25.011183    -25.011209   1.000000   1.000000
    4      -25.011145    -25.011168   1.000000   1.000000
    5      -25.011045    -25.011068   1.000000   1.000000
    6      -25.010968    -25.010990   1.000000   1.000000
    7      -25.010928    -25.010949   1.000000   1.000000
    8      -25.010792    -25.010820   1.000000   1.000000
    9      -25.010688    -25.010714   1.000000   1.000000
   10      -25.010609    -25.010634   1.000000   1.000000
   11      -25.010517    -25.010544   1.000000   1.000000
   12      -25.010482    -25.010510   1.000000   1.000000
   13      -25.010374    -25.010397   1.000000   1.000000
   14      -25.010346    -25.010374   1.000000   1.000000
   15      -25.010264    -25.010288   1.000000   1.000000
   16      -25.010220    -25.010246   1.000000   1.000000
   17      -25.010151    -25.010180   1.000000   1.000000
   18      -25.010120    -25.010145   1.000000   1.000000
   19      -25.010084    -25.010109   1.000000   1.000000
   20      -25.010002    -25.010029   1.000000   1.000000
   21      -25.009968    -25.009994   1.000000   1.000000
   22      -25.009936    -25.009962   1.000000   1.000000
   23      -25.009864    -25.009887   1.000000   1.000000
   24      -25.009697    -25.009724   1.000000   1.000000
   25      -25.009646    -25.009674   1.000000   1.000000
   26      -25.009499    -25.009525   1.000000   1.000000
   27      -25.009352    -25.009381   1.000000   1.000000
   28      -25.009324    -25.009349   1.000000   1.000000
   29      -25.009228    -25.009252   1.000000   1.000000
   30      -25.009223    -25.009247   1.000000   1.000000
   31      -25.009161    -25.009189   1.000000   1.000000
   32      -25.009126    -25.009149   1.000000   1.000000
   33      -25.009117    -25.009140   1.000000   1.000000
   34      -25.009099    -25.009121   1.000000   1.000000
   35      -25.009036    -25.009060   1.000000   1.000000
   36      -25.008978    -25.009005   1.000000   1.000000
   37      -25.008935    -25.008963   1.000000   1.000000
   38      -25.008899    -25.008925   1.000000   1.000000
   39      -25.008890    -25.008919   1.000000   1.000000
   40      -25.008882    -25.008909   1.000000   1.000000
   41      -25.008588    -25.008615   1.000000   1.000000
   42      -25.008579    -25.008608   1.000000   1.000000
   43      -25.008304    -25.008330   1.000000   1.000000
   44      -25.008169    -25.008196   1.000000   1.000000
   45      -25.007965    -25.007990   1.000000   1.000000
   46      -25.007949    -25.007977   1.000000   1.000000
   47      -25.007853    -25.007878   1.000000   1.000000
   48      -25.007852    -25.007876   1.000000   1.000000
   49      -25.007747    -25.007775   1.000000   1.000000
   50      -25.007609    -25.007637   1.000000   1.000000
   51      -25.007603    -25.007630   1.000000   1.000000
   52      -25.007392    -25.007419   1.000000   1.000000
   53      -25.007348    -25.007373   1.000000   1.000000
   54      -25.007320    -25.007344   1.000000   1.000000
   55      -25.007130    -25.007157   1.000000   1.000000
   56      -25.006805    -25.006830   1.000000   1.000000
   57      -25.006697    -25.006723   1.000000   1.000000
   58      -25.006604    -25.006631   1.000000   1.000000
   59      -25.006471    -25.006496   1.000000   1.000000
   60      -25.006437    -25.006461   1.000000   1.000000
   61      -25.006276    -25.006301   1.000000   1.000000
   62      -25.006250    -25.006274   1.000000   1.000000
   63      -25.006058    -25.006083   1.000000   1.000000
   64      -25.006035    -25.006062   1.000000   1.000000
   65      -25.005967    -25.005991   1.000000   1.000000
   66      -25.005965    -25.005989   1.000000   1.000000
   67      -25.005925    -25.005949   1.000000   1.000000
   68      -25.005722    -25.005747   1.000000   1.000000
   69      -25.005721    -25.005744   1.000000   1.000000
   70      -25.005578    -25.005605   1.000000   1.000000
   71      -25.005573    -25.005599   1.000000   1.000000
   72      -25.005467    -25.005492   1.000000   1.000000
   73      -25.005413    -25.005443   1.000000   1.000000
   74      -25.005376    -25.005403   1.000000   1.000000
   75      -25.005110    -25.005137   1.000000   1.000000
   76      -25.005109    -25.005134   1.000000   1.000000
   77      -25.004498    -25.004525   1.000000   1.000000
   78      -25.004474    -25.004499   1.000000   1.000000
   79      -25.004417    -25.004440   1.000000   1.000000
   80      -25.004341    -25.004367   1.000000   1.000000
   81      -25.004236    -25.004262   1.000000   1.000000
   82      -25.004168    -25.004195   1.000000   1.000000
   83      -25.004083    -25.004108   1.000000   1.000000
   84      -25.004079    -25.004104   1.000000   1.000000
   85      -25.003975    -25.003999   1.000000   1.000000
   86      -25.003928    -25.003953   1.000000   1.000000
   87      -25.003660    -25.003684   1.000000   1.000000
   88      -25.003650    -25.003677   1.000000   1.000000
   89      -25.003601    -25.003627   1.000000   1.000000
   90      -25.003598    -25.003625   1.000000   1.000000
   91      -25.001416    -25.001441   1.000000   1.000000
   92      -25.001402    -25.001425   1.000000   1.000000
   93      -25.001384    -25.001409   1.000000   1.000000
   94      -25.001358    -25.001385   1.000000   1.000000
   95      -25.001278    -25.001301   1.000000   1.000000
   96      -25.001268    -25.001292   1.000000   1.000000
   97      -25.001119    -25.001147   1.000000   1.000000
   98      -25.001101    -25.001125   1.000000   1.000000
   99      -25.000917    -25.000939   1.000000   1.000000
  100      -25.000910    -25.000935   1.000000   1.000000
  101      -25.000889    -25.000915   1.000000   1.000000
  102      -25.000852    -25.000876   1.000000   1.000000
  103      -25.000702    -25.000727   1.000000   1.000000
  104      -25.000678    -25.000703   1.000000   1.000000
  105      -25.000521    -25.000552   1.000000   1.000000
  106      -25.000513    -25.000539   1.000000   1.000000
  107      -25.000388    -25.000415   1.000000   1.000000
  108      -25.000378    -25.000404   1.000000   1.000000
  109      -25.000240    -25.000264   1.000000   1.000000
  110      -25.000221    -25.000248   1.000000   1.000000
  111      -25.000194    -25.000218   1.000000   1.000000
  112      -25.000109    -25.000134   1.000000   1.000000
  113      -24.999838    -24.999867   1.000000   1.000000
  114      -24.999810    -24.999836   1.000000   1.000000
  115      -24.999307    -24.999333   1.000000   1.000000
  116      -24.999303    -24.999330   1.000000   1.000000
  117      -24.999278    -24.999304   1.000000   1.000000
  118      -24.999258    -24.999285   1.000000   1.000000
  119      -24.998645    -24.998666   1.000000   1.000000
  120      -24.998586    -24.998611   1.000000   1.000000
  121      -24.998317    -24.998344   1.000000   1.000000
  122      -24.998181    -24.998207   1.000000   1.000000
  123      -24.997926    -24.997953   1.000000   1.000000
  124      -24.997657    -24.997681   1.000000   1.000000
  125      -24.997474    -24.997503   1.000000   1.000000
  126      -24.997304    -24.997330   1.000000   1.000000
  127      -24.997090    -24.997115   1.000000   1.000000
  128      -24.997055    -24.997077   1.000000   1.000000
  129      -24.996801    -24.996825   1.000000   1.000000
  130      -24.996695    -24.996721   1.000000   1.000000
  131      -24.996675    -24.996700   1.000000   1.000000
  132      -24.996556    -24.996583   1.000000   1.000000
  133      -24.996544    -24.996569   1.000000   1.000000
  134      -24.996377    -24.996402   1.000000   1.000000
  135      -24.996335    -24.996362   1.000000   1.000000
  136      -24.996212    -24.996240   1.000000   1.000000
  137      -24.996182    -24.996209   1.000000   1.000000
  138      -24.996005    -24.996030   1.000000   1.000000
  139      -24.995891    -24.995916   1.000000   1.000000
  140      -24.995410    -24.995436   1.000000   1.000000
  141      -24.995387    -24.995412   1.000000   1.000000
  142      -24.994559    -24.994585   1.000000   1.000000
  143      -24.994534    -24.994558   1.000000   1.000000
  144      -24.994035    -24.994061   1.000000   1.000000
  145      -24.977092    -24.977113   1.000000   1.000000
  146      -24.976999    -24.977019   1.000000   1.000000
  147      -24.976769    -24.976790   1.000000   1.000000
  148      -24.976757    -24.976778   1.000000   1.000000
  149      -24.976660    -24.976681   1.000000   1.000000
  150      -24.976650    -24.976670   1.000000   1.000000
  151      -24.976250    -24.976281   1.000000   1.000000
  152      -24.975989    -24.976023   1.000000   1.000000
  153      -24.975923    -24.975955   1.000000   1.000000
  154      -24.975825    -24.975853   1.000000   1.000000
  155      -24.975668    -24.975696   1.000000   1.000000
  156      -24.975473    -24.975502   1.000000   1.000000
  157      -24.975443    -24.975474   1.000000   1.000000
  158      -24.975305    -24.975337   1.000000   1.000000
  159      -24.975304    -24.975336   1.000000   1.000000
  160      -24.975299    -24.975328   1.000000   1.000000
  161      -24.975056    -24.975086   1.000000   1.000000
  162      -24.974954    -24.974988   1.000000   1.000000
  163      -24.974909    -24.974934   1.000000   1.000000
  164      -24.974792    -24.974823   1.000000   1.000000
  165      -24.974786    -24.974814   1.000000   1.000000
  166      -24.974737    -24.974766   1.000000   1.000000
  167      -24.974701    -24.974735   1.000000   1.000000
  168      -24.974633    -24.974655   1.000000   1.000000
  169      -24.974598    -24.974630   1.000000   1.000000
  170      -24.974491    -24.974525   1.000000   1.000000
  171      -24.974466    -24.974494   1.000000   1.000000
  172      -24.974436    -24.974470   1.000000   1.000000
  173      -24.974407    -24.974436   1.000000   1.000000
  174      -24.974386    -24.974419   1.000000   1.000000
  175      -24.974375    -24.974404   1.000000   1.000000
  176      -24.974283    -24.974317   1.000000   1.000000
  177      -24.974185    -24.974204   1.000000   1.000000
  178      -24.974120    -24.974149   1.000000   1.000000
  179      -24.974085    -24.974117   1.000000   1.000000
  180      -24.974010    -24.974043   1.000000   1.000000
  181      -24.973828    -24.973858   1.000000   1.000000
  182      -24.973813    -24.973842   1.000000   1.000000
  183      -24.973710    -24.973741   1.000000   1.000000
  184      -24.973682    -24.973714   1.000000   1.000000
  185      -24.973542    -24.973571   1.000000   1.000000
  186      -24.973525    -24.973552   1.000000   1.000000
  187      -24.973069    -24.973093   1.000000   1.000000
  188      -24.972970    -24.973008   1.000000   1.000000
  189      -24.972734    -24.972758   1.000000   1.000000
  190      -24.972689    -24.972711   1.000000   1.000000
  191      -24.972651    -24.972693   1.000000   1.000000
  192      -24.972557    -24.972588   1.000000   1.000000
  193      -24.967271    -24.967301   1.000000   1.000000
  194      -24.967227    -24.967258   1.000000   1.000000
  195      -24.967202    -24.967231   1.000000   1.000000
  196      -24.967006    -24.967039   1.000000   1.000000
  197      -24.966981    -24.967013   1.000000   1.000000
  198      -24.966935    -24.966967   1.000000   1.000000
  199      -24.966921    -24.966952   1.000000   1.000000
  200      -24.966852    -24.966880   1.000000   1.000000
  201      -24.966749    -24.966780   1.000000   1.000000
  202      -24.966733    -24.966759   1.000000   1.000000
  203      -24.966665    -24.966695   1.000000   1.000000
  204      -24.966651    -24.966681   1.000000   1.000000
  205      -24.966567    -24.966597   1.000000   1.000000
  206      -24.966562    -24.966590   1.000000   1.000000
  207      -24.966523    -24.966552   1.000000   1.000000
  208      -24.966491    -24.966517   1.000000   1.000000
  209      -24.966488    -24.966515   1.000000   1.000000
  210      -24.966398    -24.966423   1.000000   1.000000
  211      -24.965835    -24.965863   1.000000   1.000000
  212      -24.965824    -24.965848   1.000000   1.000000
  213      -24.965799    -24.965833   1.000000   1.000000
  214      -24.965792    -24.965821   1.000000   1.000000
  215      -24.965777    -24.965803   1.000000   1.000000
  216      -24.965765    -24.965798   1.000000   1.000000
  217      -24.965749    -24.965778   1.000000   1.000000
  218      -24.965731    -24.965763   1.000000   1.000000
  219      -24.965726    -24.965755   1.000000   1.000000
  220      -24.965689    -24.965715   1.000000   1.000000
  221      -24.965645    -24.965673   1.000000   1.000000
  222      -24.965616    -24.965644   1.000000   1.000000
  223      -24.965229    -24.965263   1.000000   1.000000
  224      -24.965191    -24.965222   1.000000   1.000000
  225      -24.965086    -24.965114   1.000000   1.000000
  226      -24.965001    -24.965038   1.000000   1.000000
  227      -24.964999    -24.965024   1.000000   1.000000
  228      -24.964880    -24.964910   1.000000   1.000000
  229      -24.964868    -24.964898   1.000000   1.000000
  230      -24.964784    -24.964814   1.000000   1.000000
  231      -24.964735    -24.964763   1.000000   1.000000
  232      -24.964628    -24.964656   1.000000   1.000000
  233      -24.964609    -24.964632   1.000000   1.000000
  234      -24.964599    -24.964626   1.000000   1.000000
  235      -24.964583    -24.964605   1.000000   1.000000
  236      -24.964519    -24.964545   1.000000   1.000000
  237      -24.964488    -24.964510   1.000000   1.000000
  238      -24.964440    -24.964466   1.000000   1.000000
  239      -24.964427    -24.964451   1.000000   1.000000
  240      -24.964260    -24.964285   1.000000   1.000000
  241      -11.353211    -11.353206   1.000000   1.000000
  242      -10.955336    -10.955334   1.000000   1.000000
  243      -10.955282    -10.955277   1.000000   1.000000
  244      -10.874020    -10.874027   1.000000   1.000000
  245      -10.874005    -10.874002   1.000000   1.000000
  246      -10.873838    -10.873820   1.000000   1.000000
  247      -10.873781    -10.873769   1.000000   1.000000
  248      -10.554554    -10.554560   1.000000   1.000000
  249      -10.554455    -10.554442   1.000000   1.000000
  250      -10.541731    -10.541731   1.000000   1.000000
  251      -10.541669    -10.541690   1.000000   1.000000
  252      -10.541624    -10.541630   1.000000   1.000000
  253      -10.541612    -10.541596   1.000000   1.000000
  254      -10.541471    -10.541462   1.000000   1.000000
  255      -10.541444    -10.541444   1.000000   1.000000
  256      -10.541410    -10.541382   1.000000   1.000000
  257      -10.541326    -10.541314   1.000000   1.000000
  258      -10.298624    -10.298619   1.000000   1.000000
  259      -10.294679    -10.294657   1.000000   1.000000
  260      -10.277158    -10.277163   1.000000   1.000000
  261      -10.277099    -10.277100   1.000000   1.000000
  262      -10.228622    -10.228628   1.000000   1.000000
  263      -10.228597    -10.228596   1.000000   1.000000
  264      -10.228539    -10.228535   1.000000   1.000000
  265      -10.228460    -10.228437   1.000000   1.000000
  266       -9.907377     -9.907355   1.000000   1.000000
  267       -9.907304     -9.907268   1.000000   1.000000
  268       -9.615310     -9.615298   1.000000   1.000000
  269       -9.615266     -9.615262   1.000000   1.000000
  270       -9.615200     -9.615192   1.000000   1.000000
  271       -9.615181     -9.615155   1.000000   1.000000
  272       -9.465877     -9.465852   1.000000   1.000000
  273       -9.465832     -9.465814   1.000000   1.000000
  274       -9.395938     -9.395914   1.000000   1.000000
  275       -9.395912     -9.395899   1.000000   1.000000
  276       -9.395873     -9.395839   1.000000   1.000000
  277       -9.395845     -9.395824   1.000000   1.000000
  278       -9.395802     -9.395756   1.000000   1.000000
  279       -9.395785     -9.395742   1.000000   1.000000
  280       -9.395696     -9.395689   1.000000   1.000000
  281       -9.395656     -9.395640   1.000000   1.000000
  282       -9.205109     -9.205098   1.000000   1.000000
  283       -9.205033     -9.204990   1.000000   1.000000
  284       -9.204940     -9.204906   1.000000   1.000000
  285       -9.204918     -9.204893   1.000000   1.000000
  286       -8.918643     -8.918587   1.000000   1.000000
  287       -8.918592     -8.918527   1.000000   1.000000
  288       -8.830975     -8.830868   1.000000   1.000000
  289       -8.830864     -8.830724   1.000000   1.000000
  290       -8.818215     -8.818107   1.000000   1.000000
  291       -8.818064     -8.817946   1.000000   1.000000
  292       -8.705418     -8.705311   1.000000   1.000000
  293       -8.705377     -8.705252   1.000000   1.000000
  294       -8.705310     -8.705175   1.000000   1.000000
  295       -8.705223     -8.705076   1.000000   1.000000
  296       -8.610704     -8.610599   1.000000   1.000000
  297       -8.610461     -8.610359   1.000000   1.000000
  298       -8.610347     -8.610254   1.000000   1.000000
  299       -8.610342     -8.610212   1.000000   1.000000
  300       -8.610302     -8.610173   1.000000   1.000000
  301       -8.610260     -8.610135   1.000000   1.000000
  302       -8.610221     -8.610089   1.000000   1.000000
  303       -8.610152     -8.610043   1.000000   1.000000
  304       -8.542380     -8.542249   1.000000   1.000000
  305       -8.542327     -8.542237   1.000000   1.000000
  306       -8.462446     -8.462336   1.000000   1.000000
  307       -8.462317     -8.462178   1.000000   1.000000
  308       -8.462185     -8.462038   1.000000   1.000000
  309       -8.462143     -8.462020   1.000000   1.000000
  310       -8.450893     -8.450759   1.000000   1.000000
  311       -8.450865     -8.450750   1.000000   1.000000
  312       -8.450746     -8.450619   1.000000   1.000000
  313       -8.450692     -8.450552   1.000000   1.000000
  314       -8.383572     -8.383449   1.000000   1.000000
  315       -8.383473     -8.383336   1.000000   1.000000
  316       -8.383391     -8.383249   1.000000   1.000000
  317       -8.383334     -8.383196   1.000000   1.000000
  318       -8.383302     -8.383169   1.000000   1.000000
  319       -8.383265     -8.383115   1.000000   1.000000
  320       -8.383239     -8.383094   1.000000   1.000000
  321       -8.383100     -8.382979   1.000000   1.000000
  322       -8.193328     -8.193215   1.000000   1.000000
  323       -8.193270     -8.193152   1.000000   1.000000
  324       -8.193126     -8.192982   1.000000   1.000000
  325       -8.193073     -8.192900   1.000000   1.000000
  326       -8.155842     -8.155716   1.000000   1.000000
  327       -8.150999     -8.150849   1.000000   1.000000
  328       -8.124707     -8.124562   1.000000   1.000000
  329       -8.124668     -8.124535   1.000000   1.000000
  330       -8.119587     -8.119461   1.000000   1.000000
  331       -8.115131     -8.114977   1.000000   1.000000
  332       -8.108519     -8.108379   1.000000   1.000000
  333       -8.106129     -8.105991   1.000000   1.000000
  334       -8.106114     -8.105969   1.000000   1.000000
  335       -8.099898     -8.099760   1.000000   1.000000
  336       -8.099867     -8.099724   1.000000   1.000000
  337       -6.911098     -6.911308   1.000000   1.000000
  338       -6.279592     -6.279712   1.000000   1.000000
  339       -6.279583     -6.279697   1.000000   1.000000
  340       -6.118139     -6.118224   1.000000   1.000000
  341       -6.118029     -6.118106   1.000000   1.000000
  342       -6.117750     -6.117809   1.000000   1.000000
  343       -6.117612     -6.117694   1.000000   1.000000
  344       -5.962716     -5.962786   1.000000   1.000000
  345       -5.962678     -5.962766   1.000000   1.000000
  346       -5.940298     -5.940366   1.000000   1.000000
  347       -5.940276     -5.940352   1.000000   1.000000
  348       -5.940170     -5.940242   1.000000   1.000000
  349       -5.940123     -5.940181   1.000000   1.000000
  350       -5.940085     -5.940148   1.000000   1.000000
  351       -5.940075     -5.940126   1.000000   1.000000
  352       -5.939916     -5.939986   1.000000   1.000000
  353       -5.939892     -5.939962   1.000000   1.000000
  354       -5.832633     -5.832677   1.000000   1.000000
  355       -5.832607     -5.832644   1.000000   1.000000
  356       -5.823208     -5.823223   1.000000   1.000000
  357       -5.823145     -5.823160   1.000000   1.000000
  358       -5.789410     -5.789460   1.000000   1.000000
  359       -5.789375     -5.789438   1.000000   1.000000
  360       -5.789338     -5.789394   1.000000   1.000000
  361       -5.789322     -5.789378   1.000000   1.000000
  362       -5.787722     -5.787742   1.000000   1.000000
  363       -5.787074     -5.787095   1.000000   1.000000
  364       -5.773512     -5.773524   1.000000   1.000000
  365       -5.773436     -5.773451   1.000000   1.000000
  366       -5.739294     -5.739314   1.000000   1.000000
  367       -5.739283     -5.739300   1.000000   1.000000
  368       -5.739239     -5.739264   1.000000   1.000000
  369       -5.739184     -5.739205   1.000000   1.000000
  370       -5.723736     -5.723751   1.000000   1.000000
  371       -5.723672     -5.723688   1.000000   1.000000
  372       -5.723536     -5.723548   1.000000   1.000000
  373       -5.723521     -5.723533   1.000000   1.000000
  374       -5.723247     -5.723263   1.000000   1.000000
  375       -5.723216     -5.723232   1.000000   1.000000
  376       -5.723115     -5.723132   1.000000   1.000000
  377       -5.723091     -5.723104   1.000000   1.000000
  378       -5.670485     -5.670494   1.000000   1.000000
  379       -5.670438     -5.670446   1.000000   1.000000
  380       -5.665395     -5.665405   1.000000   1.000000
  381       -5.665309     -5.665316   1.000000   1.000000
  382       -5.664918     -5.664928   1.000000   1.000000
  383       -5.664889     -5.664901   1.000000   1.000000
  384       -5.545453     -5.545446   1.000000   1.000000
  385       -5.545449     -5.545442   1.000000   1.000000
  386       -5.537297     -5.537290   1.000000   1.000000
  387       -5.537285     -5.537278   1.000000   1.000000
  388       -5.532738     -5.532729   1.000000   1.000000
  389       -5.531297     -5.531289   1.000000   1.000000
  390       -5.531262     -5.531255   1.000000   1.000000
  391       -5.530573     -5.530566   1.000000   1.000000
  392       -5.530529     -5.530521   1.000000   1.000000
  393       -5.521356     -5.521350   1.000000   1.000000
  394       -5.521322     -5.521314   1.000000   1.000000
  395       -5.521119     -5.521112   1.000000   1.000000
  396       -5.521104     -5.521097   1.000000   1.000000
  397       -5.521071     -5.521065   1.000000   1.000000
  398       -5.521069     -5.521062   1.000000   1.000000
  399       -5.520855     -5.520847   1.000000   1.000000
  400       -5.520833     -5.520825   1.000000   1.000000
  401       -5.520601     -5.520591   1.000000   1.000000
  402       -5.520585     -5.520580   1.000000   1.000000
  403       -5.520137     -5.520128   1.000000   1.000000
  404       -5.520119     -5.520112   1.000000   1.000000
  405       -5.517638     -5.517632   1.000000   1.000000
  406       -5.517629     -5.517621   1.000000   1.000000
  407       -5.509815     -5.509808   1.000000   1.000000
  408       -5.508123     -5.508118   1.000000   1.000000
  409       -5.507412     -5.507407   1.000000   1.000000
  410       -5.507399     -5.507392   1.000000   1.000000
  411       -5.507368     -5.507362   1.000000   1.000000
  412       -5.507359     -5.507351   1.000000   1.000000
  413       -5.500568     -5.500561   1.000000   1.000000
  414       -5.500531     -5.500526   1.000000   1.000000
  415       -5.500264     -5.500257   1.000000   1.000000
  416       -5.500250     -5.500243   1.000000   1.000000
  417       -5.500201     -5.500195   1.000000   1.000000
  418       -5.500188     -5.500181   1.000000   1.000000
  419       -5.499914     -5.499910   1.000000   1.000000
  420       -5.499906     -5.499898   1.000000   1.000000
  421       -5.495384     -5.495382   1.000000   1.000000
  422       -5.495339     -5.495332   1.000000   1.000000
  423       -5.494857     -5.494849   1.000000   1.000000
  424       -5.494667     -5.494660   1.000000   1.000000
  425       -5.491708     -5.491703   1.000000   1.000000
  426       -5.491688     -5.491681   1.000000   1.000000
  427       -5.489951     -5.489942   1.000000   1.000000
  428       -5.489939     -5.489930   1.000000   1.000000
  429       -5.482231     -5.482221   1.000000   1.000000
  430       -5.482223     -5.482217   1.000000   1.000000
  431       -5.473861     -5.473854   1.000000   1.000000
  432       -5.473842     -5.473834   1.000000   1.000000
  433       -5.468797     -5.468790   1.000000   1.000000
  434       -5.466694     -5.466688   1.000000   1.000000
  435       -5.462260     -5.462255   1.000000   1.000000
  436       -5.462192     -5.462186   1.000000   1.000000
  437       -5.442936     -5.442928   1.000000   1.000000
  438       -5.442767     -5.442761   1.000000   1.000000
  439       -5.442218     -5.442211   1.000000   1.000000
  440       -5.442049     -5.442042   1.000000   1.000000
  441       -5.438586     -5.438578   1.000000   1.000000
  442       -5.438539     -5.438530   1.000000   1.000000
  443       -5.435259     -5.435254   1.000000   1.000000
  444       -5.433681     -5.433675   1.000000   1.000000
  445       -5.430448     -5.430442   1.000000   1.000000
  446       -5.430325     -5.430316   1.000000   1.000000
  447       -5.427523     -5.427515   1.000000   1.000000
  448       -5.427517     -5.427510   1.000000   1.000000
  449       -5.427420     -5.427413   1.000000   1.000000
  450       -5.427386     -5.427379   1.000000   1.000000
  451       -5.427357     -5.427348   1.000000   1.000000
  452       -5.427330     -5.427322   1.000000   1.000000
  453       -5.427214     -5.427208   1.000000   1.000000
  454       -5.427211     -5.427204   1.000000   1.000000
  455       -5.411380     -5.411371   1.000000   1.000000
  456       -5.411374     -5.411364   1.000000   1.000000
  457       -5.411303     -5.411294   1.000000   1.000000
  458       -5.411285     -5.411275   1.000000   1.000000
  459       -5.409813     -5.409803   1.000000   1.000000
  460       -5.407531     -5.407524   1.000000   1.000000
  461       -5.407527     -5.407522   1.000000   1.000000
  462       -5.386345     -5.386338   1.000000   1.000000
  463       -5.386305     -5.386299   1.000000   1.000000
  464       -5.386084     -5.386078   1.000000   1.000000
  465       -5.386076     -5.386069   1.000000   1.000000
  466       -5.386031     -5.386027   1.000000   1.000000
  467       -5.386025     -5.386016   1.000000   1.000000
  468       -5.385823     -5.385818   1.000000   1.000000
  469       -5.385806     -5.385796   1.000000   1.000000
  470       -5.380795     -5.380787   1.000000   1.000000
  471       -5.380776     -5.380768   1.000000   1.000000
  472       -5.380767     -5.380759   1.000000   1.000000
  473       -5.380747     -5.380739   1.000000   1.000000
  474       -5.378319     -5.378314   1.000000   1.000000
  475       -5.378280     -5.378274   1.000000   1.000000
  476       -5.371072     -5.371064   1.000000   1.000000
  477       -5.371043     -5.371035   1.000000   1.000000
  478       -5.366510     -5.366503   1.000000   1.000000
  479       -5.366461     -5.366451   1.000000   1.000000
  480       -5.359565     -5.359557   1.000000   1.000000
  481       -5.359547     -5.359539   1.000000   1.000000
  482       -5.359525     -5.359517   1.000000   1.000000
  483       -5.359521     -5.359513   1.000000   1.000000
  484       -5.359221     -5.359213   1.000000   1.000000
  485       -5.358892     -5.358884   1.000000   1.000000
  486       -5.358522     -5.358514   1.000000   1.000000
  487       -5.358243     -5.358235   1.000000   1.000000
  488       -5.355134     -5.355135   1.000000   1.000000
  489       -5.355117     -5.355116   1.000000   1.000000
  490       -5.354559     -5.354559   1.000000   1.000000
  491       -5.354473     -5.354474   1.000000   1.000000
  492       -5.350372     -5.350368   1.000000   1.000000
  493       -5.350358     -5.350351   1.000000   1.000000
  494       -5.350127     -5.350118   1.000000   1.000000
  495       -5.350115     -5.350110   1.000000   1.000000
  496       -5.350110     -5.350104   1.000000   1.000000
  497       -5.349784     -5.349778   1.000000   1.000000
  498       -5.349783     -5.349776   1.000000   1.000000
  499       -5.349507     -5.349501   1.000000   1.000000
  500       -5.349493     -5.349488   1.000000   1.000000
  501       -5.347749     -5.347740   1.000000   1.000000
  502       -5.347747     -5.347738   1.000000   1.000000
  503       -5.335080     -5.335072   1.000000   1.000000
  504       -5.334799     -5.334792   1.000000   1.000000
  505       -5.334535     -5.334526   1.000000   1.000000
  506       -5.334283     -5.334275   1.000000   1.000000
  507       -5.329394     -5.329390   1.000000   1.000000
  508       -5.329367     -5.329363   1.000000   1.000000
  509       -5.328862     -5.328857   1.000000   1.000000
  510       -5.328824     -5.328820   1.000000   1.000000
  511       -5.328766     -5.328762   1.000000   1.000000
  512       -5.328719     -5.328716   1.000000   1.000000