       N       E                     dE             d eps       ncg     rms          ort
DAV:   1     0.385796998066E+05    0.38580E+05   -0.42262E+05  1136   0.337E+03
DAV:   2     0.148145082218E+05   -0.23765E+05   -0.21920E+05  1136   0.727E+02
DAV:   3     0.682921089087E+04   -0.79853E+04   -0.73416E+04  1136   0.285E+02
DAV:   4     0.436365663997E+04   -0.24656E+04   -0.22920E+04  1136   0.172E+02
DAV:   5     0.368485041523E+04   -0.67881E+03   -0.64610E+03  1136   0.868E+01
SDA:   6    -0.755416321133E+03   -0.44403E+04   -0.49918E+03  1136   0.125E+04 0.000E+00
DMP:   7    -0.962282034092E+03   -0.20687E+03   -0.18485E+03  1136   0.519E+03-0.148E+03
DMP:   8    -0.108087365572E+04   -0.11859E+03   -0.57618E+02  1136   0.992E+02 0.117E+03
DMP:   9    -0.110095029626E+04   -0.20077E+02   -0.41702E+02  1136   0.125E+03-0.549E+02
DMP:  10    -0.112391854484E+04   -0.22968E+02   -0.87375E+01  1136   0.187E+02 0.824E+01
DMP:  11    -0.113001097220E+04   -0.60924E+01   -0.76313E+01  1136   0.163E+02 0.724E+01
DMP:  12    -0.113344171262E+04   -0.34307E+01   -0.27354E+01  1136   0.781E+01-0.255E+01
DMP:  13    -0.113525284552E+04   -0.18111E+01   -0.77726E+00  1136   0.116E+01 0.206E+01
DMP:  14    -0.113573954910E+04   -0.48670E+00   -0.60979E+00  1136   0.136E+01 0.432E+00
DMP:  15    -0.113609961185E+04   -0.36006E+00   -0.16882E+00  1136   0.325E+00 0.253E+00
DMP:  16    -0.113623390666E+04   -0.13429E+00   -0.97283E-01  1136   0.151E+00 0.242E+00
DMP:  17    -0.113629724325E+04   -0.63337E-01   -0.35970E-01  1136   0.629E-01 0.706E-01
DMP:  18    -0.113632546409E+04   -0.28221E-01   -0.16599E-01  1136   0.222E-01 0.505E-01
DMP:  19    -0.113633655749E+04   -0.11093E-01   -0.74127E-02  1136   0.132E-01 0.139E-01
DMP:  20    -0.113634206819E+04   -0.55107E-02   -0.25311E-02  1136   0.295E-02 0.884E-02
DMP:  21    -0.113634395457E+04   -0.18864E-02   -0.13433E-02  1136   0.220E-02 0.303E-02
DMP:  22    -0.113634492261E+04   -0.96804E-03   -0.46992E-03  1136   0.597E-03 0.151E-02
DMP:  23    -0.113634529845E+04   -0.37583E-03   -0.25410E-03  1136   0.367E-03 0.702E-03
DMP:  24    -0.113634550131E+04   -0.20286E-03   -0.11386E-03  1136   0.146E-03 0.363E-03
DMP:  25    -0.113634559648E+04   -0.95166E-04   -0.67172E-04  1136   0.955E-04 0.190E-03
DMP:  26    -0.113634565091E+04   -0.54432E-04   -0.34910E-04  1136   0.457E-04 0.109E-03
DMP:  27    -0.113634568166E+04   -0.30753E-04   -0.21328E-04  1136   0.284E-04 0.653E-04
DMP:  28    -0.113634570074E+04   -0.19076E-04   -0.12629E-04  1136   0.164E-04 0.396E-04
DMP:  29    -0.113634571208E+04   -0.11346E-04   -0.80139E-05  1136   0.106E-04 0.246E-04
DMP:  30    -0.113634571914E+04   -0.70592E-05   -0.49616E-05  1136   0.648E-05 0.155E-04
   1 F= -.11363457E+04 E0= -.11363457E+04  d E =-.739343E-16  mag=     0.0000
