 vasp.5.4.4.18Apr17-6-g9f103f2a35 (build Mar 26 2021 15:05:33) gamma-only       
  
 executed on             LinuxIFC date 2022.01.30  04:31:01
 running on  128 total cores
 distrk:  each k-point on  128 cores,    1 groups
 distr:  one band on NCORES_PER_BAND=   8 cores,   16 groups


--------------------------------------------------------------------------------------------------------


 INCAR:
 POTCAR:   PAW_PBE Zn 06Sep2000                   
 POTCAR:   PAW_PBE Ge_d 06Sep2000                 
 POTCAR:    PAW_PBE P 17Jan2003                   
 POTCAR:   PAW_PBE Zn 06Sep2000                   
   VRHFIN =Zn: d10 p2                                                           
   LEXCH  = PE                                                                  
   EATOM  =  1749.0928 eV,  128.5547 Ry                                         
                                                                                
   TITEL  = PAW_PBE Zn 06Sep2000                                                
   LULTRA =        F    use ultrasoft PP ?                                      
   IUNSCR =        1    unscreen: 0-lin 1-nonlin 2-no                           
   RPACOR =    2.000    partial core radius                                     
   POMASS =   65.390; ZVAL   =   12.000    mass and valenz                      
   RCORE  =    2.300    outmost cutoff radius                                   
   RWIGS  =    2.400; RWIGS  =    1.270    wigner-seitz radius (au A)           
   ENMAX  =  276.727; ENMIN  =  207.545 eV                                      
   RCLOC  =    1.828    cutoff for local pot                                    
   LCOR   =        T    correct aug charges                                     
   LPAW   =        T    paw PP                                                  
   EAUG   =  575.892                                                            
   DEXC   =    -.003                                                            
   RMAX   =    2.772    core radius for proj-oper                               
   RAUG   =    1.300    factor for augmentation sphere                          
   RDEP   =    2.324    radius for radial grids                                 
   QCUT   =   -4.510; QGAM   =    9.020    optimization parameters              
                                                                                
   Description                                                                  
     l     E      TYP  RCUT    TYP  RCUT                                        
     2   .000     23  2.300                                                     
     2   .000     23  2.300                                                     
     0   .000     23  2.300                                                     
     0   .000     23  2.300                                                     
     1  -.200     23  2.300                                                     
     1   .000     23  2.300                                                     
     3   .000      7   .000                                                     
  local pseudopotential read in
  partial core-charges read in
  atomic valenz-charges read in
  non local Contribution for L=           2  read in
    real space projection operators read in
  non local Contribution for L=           2  read in
    real space projection operators read in
  non local Contribution for L=           0  read in
    real space projection operators read in
  non local Contribution for L=           0  read in
    real space projection operators read in
  non local Contribution for L=           1  read in
    real space projection operators read in
  non local Contribution for L=           1  read in
    real space projection operators read in
    PAW grid and wavefunctions read in
 
   number of l-projection  operators is LMAX  =           6
   number of lm-projection operators is LMMAX =          18
 
 POTCAR:   PAW_PBE Ge_d 06Sep2000                 
   VRHFIN =Ge: 3d4s4p                                                           
   LEXCH  = PE                                                                  
   EATOM  =  2596.4246 eV,  190.8318 Ry                                         
                                                                                
   TITEL  = PAW_PBE Ge_d 06Sep2000                                              
   LULTRA =        F    use ultrasoft PP ?                                      
   IUNSCR =        1    unscreen: 0-lin 1-nonlin 2-no                           
   RPACOR =    2.000    partial core radius                                     
   POMASS =   72.610; ZVAL   =   14.000    mass and valenz                      
   RCORE  =    2.300    outmost cutoff radius                                   
   RWIGS  =    2.300; RWIGS  =    1.217    wigner-seitz radius (au A)           
   ENMAX  =  287.568; ENMIN  =  215.676 eV                                      
   ICORE  =        3    local potential                                         
   LCOR   =        T    correct aug charges                                     
   LPAW   =        T    paw PP                                                  
   EAUG   =  531.356                                                            
   DEXC   =     .000                                                            
   RMAX   =    2.719    core radius for proj-oper                               
   RAUG   =    1.300    factor for augmentation sphere                          
   RDEP   =    2.318    radius for radial grids                                 
   QCUT   =   -4.597; QGAM   =    9.195    optimization parameters              
                                                                                
   Description                                                                  
     l     E      TYP  RCUT    TYP  RCUT                                        
     2   .000     23  2.300                                                     
     2  -.100     23  2.300                                                     
     0   .000     23  2.300                                                     
     0   .000     23  2.300                                                     
     1   .000     23  2.300                                                     
     1   .000     23  2.300                                                     
     3  -.100      7  2.300                                                     
  local pseudopotential read in
  partial core-charges read in
  atomic valenz-charges read in
  non local Contribution for L=           2  read in
    real space projection operators read in
  non local Contribution for L=           2  read in
    real space projection operators read in
  non local Contribution for L=           0  read in
    real space projection operators read in
  non local Contribution for L=           0  read in
    real space projection operators read in
  non local Contribution for L=           1  read in
    real space projection operators read in
  non local Contribution for L=           1  read in
    real space projection operators read in
    PAW grid and wavefunctions read in
 
   number of l-projection  operators is LMAX  =           6
   number of lm-projection operators is LMMAX =          18
 
 POTCAR:    PAW_PBE P 17Jan2003                   
   VRHFIN =P : s2p3                                                             
   LEXCH  = PE                                                                  
   EATOM  =   176.0430 eV,   12.9388 Ry                                         
                                                                                
   TITEL  = PAW_PBE P 17Jan2003                                                 
   LULTRA =        F    use ultrasoft PP ?                                      
   IUNSCR =        1    unscreen: 0-lin 1-nonlin 2-no                           
   RPACOR =    1.500    partial core radius                                     
   POMASS =   30.974; ZVAL   =    5.000    mass and valenz                      
   RCORE  =    1.900    outmost cutoff radius                                   
   RWIGS  =    2.330; RWIGS  =    1.233    wigner-seitz radius (au A)           
   ENMAX  =  270.000; ENMIN  =  191.280 eV                                      
   ICORE  =        2    local potential                                         
   LCOR   =        T    correct aug charges                                     
   LPAW   =        T    paw PP                                                  
   EAUG   =  342.924                                                            
   DEXC   =    -.002                                                            
   RMAX   =    2.887    core radius for proj-oper                               
   RAUG   =    1.300    factor for augmentation sphere                          
   RDEP   =    1.931    radius for radial grids                                 
   QCUT   =   -4.330; QGAM   =    8.659    optimization parameters              
                                                                                
   Description                                                                  
     l     E      TYP  RCUT    TYP  RCUT                                        
     0   .000     23  1.900                                                     
     0   .000     23  1.900                                                     
     1   .000     23  1.900                                                     
     1   .000     23  1.900                                                     
     2   .000     23  1.900                                                     
  local pseudopotential read in
  partial core-charges read in
  atomic valenz-charges read in
  non local Contribution for L=           0  read in
    real space projection operators read in
  non local Contribution for L=           0  read in
    real space projection operators read in
  non local Contribution for L=           1  read in
    real space projection operators read in
  non local Contribution for L=           1  read in
    real space projection operators read in
    PAW grid and wavefunctions read in
 
   number of l-projection  operators is LMAX  =           4
   number of lm-projection operators is LMMAX =           8
 

 ----------------------------------------------------------------------------- 
|                                                                             |
|  ADVICE TO THIS USER RUNNING 'VASP/VAMP'   (HEAR YOUR MASTER'S VOICE ...):  |
|                                                                             |
|      You have a (more or less) 'large supercell' and for larger cells       |
|      it might be more efficient to use real space projection operators      |
|      So try LREAL= Auto  in the INCAR   file.                               |
|      Mind: If you want to do a very accurate calculations keep the          |
|      reciprocal projection scheme          (i.e. LREAL=.FALSE.)             |
|                                                                             |
 ----------------------------------------------------------------------------- 

 PAW_PBE Zn 06Sep2000                   :
 energy of atom  1       EATOM=-1749.0928
 kinetic energy error for atom=    0.0174 (will be added to EATOM!!)
 PAW_PBE Ge_d 06Sep2000                 :
 energy of atom  2       EATOM=-2596.4246
 kinetic energy error for atom=    0.0135 (will be added to EATOM!!)
  PAW_PBE P 17Jan2003                   :
 energy of atom  3       EATOM= -176.0430
 kinetic energy error for atom=    0.0024 (will be added to EATOM!!)
 
 
 POSCAR: Cubic_cell                              
  positions in direct lattice
  No initial velocities read in
 exchange correlation table for  LEXCH =        8
   RHO(1)=    0.500       N(1)  =     2000
   RHO(2)=  100.500       N(2)  =     4000
 


--------------------------------------------------------------------------------------------------------


 ion  position               nearest neighbor table
   1  1.000  1.000  0.250-  97 2.37 164 2.37  99 2.37 162 2.37
   2  0.000  0.000  0.000-  99 2.37 186 2.37 173 2.37 120 2.37
   3  0.167  0.625  0.375- 101 2.37 128 2.37 127 2.37 102 2.37
   4  0.167  0.875  0.375-  97 2.37 100 2.37 103 2.37 102 2.37
   5  0.000  0.500  0.750- 105 2.37 172 2.37 107 2.37 170 2.37
   6  0.000  0.500  0.500- 128 2.37 165 2.37 107 2.37 178 2.37
   7  0.167  0.125  0.875- 109 2.37 120 2.37 110 2.37 119 2.37
   8  0.167  0.375  0.875- 105 2.37 108 2.37 110 2.37 111 2.37
   9  1.000  0.250  0.500- 113 2.37 180 2.37 178 2.37 115 2.37
  10  1.000  0.250  0.250- 189 2.37 112 2.37 162 2.37 115 2.37
  11  0.167  0.875  0.625- 117 2.37 104 2.37 103 2.37 118 2.37
  12  0.167  0.125  0.625- 113 2.37 116 2.37 119 2.37 118 2.37
  13  0.000  0.750  0.000- 121 2.37 188 2.37 186 2.37 123 2.37
  14  0.000  0.750  0.750- 104 2.37 181 2.37 123 2.37 170 2.37
  15  0.167  0.375  0.125- 125 2.37 112 2.37 126 2.37 111 2.37
  16  0.167  0.625  0.125- 124 2.37 121 2.37 127 2.37 126 2.37
  17  0.333  1.000  0.250- 129 2.37 100 2.37 131 2.37  98 2.37
  18  0.333  0.000  1.000- 109 2.37 152 2.37 122 2.37 131 2.37
  19  0.500  0.625  0.375- 133 2.37 160 2.37 159 2.37 134 2.37
  20  0.500  0.875  0.375- 132 2.37 129 2.37 135 2.37 134 2.37
  21  0.333  0.500  0.750- 137 2.37 108 2.37 106 2.37 139 2.37
  22  0.333  0.500  0.500- 101 2.37 160 2.37 114 2.37 139 2.37
  23  0.500  0.125  0.875- 141 2.37 152 2.37 151 2.37 142 2.37
  24  0.500  0.375  0.875- 137 2.37 140 2.37 143 2.37 142 2.37
  25  0.333  0.250  0.500- 145 2.37 116 2.37 114 2.37 147 2.37
  26  0.333  0.250  0.250- 125 2.37 144 2.37 147 2.37  98 2.37
  27  0.500  0.875  0.625- 149 2.37 136 2.37 150 2.37 135 2.37
  28  0.500  0.125  0.625- 145 2.37 148 2.37 151 2.37 150 2.37
  29  0.333  0.750  0.000- 153 2.37 124 2.37 122 2.37 155 2.37
  30  0.333  0.750  0.750- 117 2.37 136 2.37 155 2.37 106 2.37
  31  0.500  0.375  0.125- 157 2.37 144 2.37 143 2.37 158 2.37
  32  0.500  0.625  0.125- 153 2.37 156 2.37 158 2.37 159 2.37
  33  0.667  1.000  0.250- 132 2.37 161 2.37 163 2.37 130 2.37
  34  0.667  0.000  1.000- 141 2.37 184 2.37 154 2.37 163 2.37
  35  0.833  0.625  0.375- 165 2.37 192 2.37 166 2.37 191 2.37
  36  0.833  0.875  0.375- 161 2.37 164 2.37 166 2.37 167 2.37
  37  0.667  0.500  0.750- 169 2.37 140 2.37 138 2.37 171 2.37
  38  0.667  0.500  0.500- 133 2.37 192 2.37 171 2.37 146 2.37
  39  0.833  0.125  0.875- 184 2.37 173 2.37 174 2.37 183 2.37
  40  0.833  0.375  0.875- 169 2.37 172 2.37 175 2.37 174 2.37
  41  0.667  0.250  0.500- 177 2.37 148 2.37 179 2.37 146 2.37
  42  0.667  0.250  0.250- 176 2.37 157 2.37 130 2.37 179 2.37
  43  0.833  0.875  0.625- 181 2.37 168 2.37 182 2.37 167 2.37
  44  0.833  0.125  0.625- 177 2.37 180 2.37 183 2.37 182 2.37
  45  0.667  0.750  0.000- 156 2.37 185 2.37 154 2.37 187 2.37
  46  0.667  0.750  0.750- 149 2.37 168 2.37 138 2.37 187 2.37
  47  0.833  0.375  0.125- 189 2.37 176 2.37 190 2.37 175 2.37
  48  0.833  0.625  0.125- 185 2.37 188 2.37 190 2.37 191 2.37
  49  0.167  0.875  0.125-  99 2.34 122 2.34 100 2.34 121 2.34
  50  0.167  0.125  0.125-  99 2.34  98 2.34 112 2.34 109 2.34
  51  1.000  0.750  0.500- 167 2.34 102 2.34 104 2.34 165 2.34
  52  0.000  0.750  0.250- 102 2.34 191 2.34 121 2.34 164 2.34
  53  0.167  0.375  0.625- 114 2.34 107 2.34 108 2.34 113 2.34
  54  0.167  0.625  0.625- 106 2.34 107 2.34 104 2.34 101 2.34
  55  1.000  0.250  1.000- 110 2.34 175 2.34 112 2.34 173 2.34
  56  0.000  0.250  0.750- 110 2.34 183 2.34 113 2.34 172 2.34
  57  0.167  0.125  0.375- 115 2.34  98 2.34  97 2.34 116 2.34
  58  0.167  0.375  0.375- 114 2.34 115 2.34 128 2.34 125 2.34
  59  0.000  0.000  0.750- 183 2.34 118 2.34 181 2.34 120 2.34
  60  0.000  1.000  0.500- 118 2.34 167 2.34 180 2.34  97 2.34
  61  0.167  0.625  0.875- 123 2.34 106 2.34 124 2.34 105 2.34
  62  0.167  0.875  0.875- 123 2.34 122 2.34 117 2.34 120 2.34
  63  0.000  0.500  0.250- 126 2.34 191 2.34 128 2.34 189 2.34
  64  1.000  0.500  0.000- 126 2.34 175 2.34 188 2.34 105 2.34
  65  0.500  0.875  0.125- 154 2.34 131 2.34 132 2.34 153 2.34
  66  0.500  0.125  0.125- 130 2.34 131 2.34 141 2.34 144 2.34
  67  0.333  0.750  0.500- 103 2.34 134 2.34 101 2.34 136 2.34
  68  0.333  0.750  0.250- 134 2.34 127 2.34 100 2.34 153 2.34
  69  0.500  0.375  0.625- 146 2.34 139 2.34 140 2.34 145 2.34
  70  0.500  0.625  0.625- 139 2.34 138 2.34 136 2.34 133 2.34
  71  0.333  0.250  1.000- 142 2.34 111 2.34 109 2.34 144 2.34
  72  0.333  0.250  0.750- 119 2.34 142 2.34 108 2.34 145 2.34
  73  0.500  0.125  0.375- 130 2.34 147 2.34 148 2.34 129 2.34
  74  0.500  0.375  0.375- 146 2.34 147 2.34 157 2.34 160 2.34
  75  0.333  0.000  0.750- 119 2.34 150 2.34 152 2.34 117 2.34
  76  0.333  1.000  0.500- 150 2.34 103 2.34 116 2.34 129 2.34
  77  0.500  0.625  0.875- 155 2.34 138 2.34 156 2.34 137 2.34
  78  0.500  0.875  0.875- 155 2.34 154 2.34 152 2.34 149 2.34
  79  0.333  0.500  0.250- 158 2.34 127 2.34 160 2.34 125 2.34
  80  0.333  0.500  0.000- 158 2.34 111 2.34 124 2.34 137 2.34
  81  0.833  0.875  0.125- 186 2.34 163 2.34 185 2.34 164 2.34
  82  0.833  0.125  0.125- 163 2.34 162 2.34 176 2.34 173 2.34
  83  0.667  0.750  0.500- 135 2.34 166 2.34 133 2.34 168 2.34
  84  0.667  0.750  0.250- 159 2.34 166 2.34 132 2.34 185 2.34
  85  0.833  0.375  0.625- 171 2.34 178 2.34 177 2.34 172 2.34
  86  0.833  0.625  0.625- 171 2.34 170 2.34 168 2.34 165 2.34
  87  0.667  0.250  1.000- 174 2.34 143 2.34 176 2.34 141 2.34
  88  0.667  0.250  0.750- 174 2.34 151 2.34 140 2.34 177 2.34
  89  0.833  0.125  0.375- 162 2.34 179 2.34 161 2.34 180 2.34
  90  0.833  0.375  0.375- 179 2.34 178 2.34 192 2.34 189 2.34
  91  0.667  0.000  0.750- 151 2.34 182 2.34 184 2.34 149 2.34
  92  0.667  1.000  0.500- 182 2.34 135 2.34 148 2.34 161 2.34
  93  0.833  0.625  0.875- 170 2.34 187 2.34 188 2.34 169 2.34
  94  0.833  0.875  0.875- 186 2.34 187 2.34 184 2.34 181 2.34
  95  0.667  0.500  0.250- 190 2.34 159 2.34 192 2.34 157 2.34
  96  0.667  0.500  0.000- 143 2.34 190 2.34 156 2.34 169 2.34
  97  0.083  0.001  0.376-  57 2.34  60 2.34   1 2.37   4 2.37
  98  0.249  0.125  0.250-  57 2.34  50 2.34  17 2.37  26 2.37
  99  0.085  1.000  0.125-  49 2.34  50 2.34   2 2.37   1 2.37
 100  0.250  0.874  0.249-  49 2.34  68 2.34   4 2.37  17 2.37
 101  0.250  0.626  0.501-  67 2.34  54 2.34  22 2.37   3 2.37
 102  0.082  0.750  0.375-  51 2.34  52 2.34   4 2.37   3 2.37
 103  0.251  0.875  0.500-  67 2.34  76 2.34   4 2.37  11 2.37
 104  0.083  0.749  0.624-  54 2.34  51 2.34  14 2.37  11 2.37
 105  0.083  0.501  0.876-  61 2.34  64 2.34   8 2.37   5 2.37
 106  0.249  0.625  0.750-  54 2.34  61 2.34  30 2.37  21 2.37
 107  0.085  0.500  0.625-  53 2.34  54 2.34   5 2.37   6 2.37
 108  0.250  0.374  0.749-  53 2.34  72 2.34  21 2.37   8 2.37
 109  0.250  0.126  0.001-  50 2.34  71 2.34  18 2.37   7 2.37
 110  0.082  0.250  0.875-  55 2.34  56 2.34   8 2.37   7 2.37
 111  0.251  0.375  1.000-  71 2.34  80 2.34   8 2.37  15 2.37
 112  0.083  0.249  0.124-  50 2.34  55 2.34  10 2.37  15 2.37
 113  0.083  0.251  0.626-  53 2.34  56 2.34   9 2.37  12 2.37
 114  0.249  0.375  0.500-  53 2.34  58 2.34  22 2.37  25 2.37
 115  0.085  0.250  0.375-  57 2.34  58 2.34   9 2.37  10 2.37
 116  0.250  0.124  0.499-  57 2.34  76 2.34  25 2.37  12 2.37
 117  0.250  0.876  0.751-  62 2.34  75 2.34  30 2.37  11 2.37
 118  0.082  0.000  0.625-  60 2.34  59 2.34  12 2.37  11 2.37
 119  0.251  0.125  0.750-  72 2.34  75 2.34  12 2.37   7 2.37
 120  0.083  0.999  0.874-  62 2.34  59 2.34   7 2.37   2 2.37
 121  0.083  0.751  0.126-  49 2.34  52 2.34  13 2.37  16 2.37
 122  0.249  0.875  0.000-  49 2.34  62 2.34  18 2.37  29 2.37
 123  0.085  0.750  0.875-  61 2.34  62 2.34  14 2.37  13 2.37
 124  0.250  0.624  0.999-  61 2.34  80 2.34  16 2.37  29 2.37
 125  0.250  0.376  0.251-  58 2.34  79 2.34  26 2.37  15 2.37
 126  0.082  0.500  0.125-  63 2.34  64 2.34  16 2.37  15 2.37
 127  0.251  0.625  0.250-  68 2.34  79 2.34  16 2.37   3 2.37
 128  0.083  0.499  0.374-  58 2.34  63 2.34   6 2.37   3 2.37
 129  0.417  0.001  0.376-  73 2.34  76 2.34  20 2.37  17 2.37
 130  0.582  0.125  0.250-  73 2.34  66 2.34  42 2.37  33 2.37
 131  0.418  1.000  0.125-  65 2.34  66 2.34  17 2.37  18 2.37
 132  0.583  0.874  0.249-  65 2.34  84 2.34  20 2.37  33 2.37
 133  0.583  0.626  0.501-  83 2.34  70 2.34  19 2.37  38 2.37
 134  0.415  0.750  0.375-  68 2.34  67 2.34  20 2.37  19 2.37
 135  0.585  0.875  0.500-  83 2.34  92 2.34  20 2.37  27 2.37
 136  0.417  0.749  0.624-  70 2.34  67 2.34  27 2.37  30 2.37
 137  0.417  0.501  0.876-  77 2.34  80 2.34  24 2.37  21 2.37
 138  0.582  0.625  0.750-  77 2.34  70 2.34  46 2.37  37 2.37
 139  0.418  0.500  0.625-  70 2.34  69 2.34  22 2.37  21 2.37
 140  0.583  0.374  0.749-  69 2.34  88 2.34  24 2.37  37 2.37
 141  0.583  0.126  0.001-  66 2.34  87 2.34  23 2.37  34 2.37
 142  0.415  0.250  0.875-  71 2.34  72 2.34  23 2.37  24 2.37
 143  0.585  0.375  1.000-  96 2.34  87 2.34  24 2.37  31 2.37
 144  0.417  0.249  0.124-  66 2.34  71 2.34  26 2.37  31 2.37
 145  0.417  0.251  0.626-  69 2.34  72 2.34  28 2.37  25 2.37
 146  0.582  0.375  0.500-  74 2.34  69 2.34  38 2.37  41 2.37
 147  0.418  0.250  0.375-  73 2.34  74 2.34  26 2.37  25 2.37
 148  0.583  0.124  0.499-  73 2.34  92 2.34  28 2.37  41 2.37
 149  0.583  0.876  0.751-  78 2.34  91 2.34  27 2.37  46 2.37
 150  0.415  0.000  0.625-  76 2.34  75 2.34  28 2.37  27 2.37
 151  0.585  0.125  0.750-  91 2.34  88 2.34  28 2.37  23 2.37
 152  0.417  0.999  0.874-  78 2.34  75 2.34  23 2.37  18 2.37
 153  0.417  0.751  0.126-  65 2.34  68 2.34  29 2.37  32 2.37
 154  0.582  0.875  0.000-  65 2.34  78 2.34  34 2.37  45 2.37
 155  0.418  0.750  0.875-  77 2.34  78 2.34  30 2.37  29 2.37
 156  0.583  0.624  0.999-  77 2.34  96 2.34  32 2.37  45 2.37
 157  0.583  0.376  0.251-  74 2.34  95 2.34  31 2.37  42 2.37
 158  0.415  0.500  0.125-  79 2.34  80 2.34  32 2.37  31 2.37
 159  0.585  0.625  0.250-  84 2.34  95 2.34  32 2.37  19 2.37
 160  0.417  0.499  0.374-  79 2.34  74 2.34  22 2.37  19 2.37
 161  0.750  0.001  0.376-  89 2.34  92 2.34  36 2.37  33 2.37
 162  0.915  0.125  0.250-  89 2.34  82 2.34  10 2.37   1 2.37
 163  0.751  1.000  0.125-  81 2.34  82 2.34  34 2.37  33 2.37
 164  0.917  0.874  0.249-  81 2.34  52 2.34   1 2.37  36 2.37
 165  0.917  0.626  0.501-  86 2.34  51 2.34  35 2.37   6 2.37
 166  0.749  0.750  0.375-  84 2.34  83 2.34  36 2.37  35 2.37
 167  0.918  0.875  0.500-  51 2.34  60 2.34  36 2.37  43 2.37
 168  0.750  0.749  0.624-  86 2.34  83 2.34  46 2.37  43 2.37
 169  0.750  0.501  0.876-  93 2.34  96 2.34  40 2.37  37 2.37
 170  0.915  0.625  0.750-  93 2.34  86 2.34   5 2.37  14 2.37
 171  0.751  0.500  0.625-  85 2.34  86 2.34  38 2.37  37 2.37
 172  0.917  0.374  0.749-  85 2.34  56 2.34   5 2.37  40 2.37
 173  0.917  0.126  0.001-  82 2.34  55 2.34  39 2.37   2 2.37
 174  0.749  0.250  0.875-  88 2.34  87 2.34  39 2.37  40 2.37
 175  0.918  0.375  1.000-  64 2.34  55 2.34  40 2.37  47 2.37
 176  0.750  0.249  0.124-  82 2.34  87 2.34  42 2.37  47 2.37
 177  0.750  0.251  0.626-  85 2.34  88 2.34  44 2.37  41 2.37
 178  0.915  0.375  0.500-  85 2.34  90 2.34   9 2.37   6 2.37
 179  0.751  0.250  0.375-  90 2.34  89 2.34  41 2.37  42 2.37
 180  0.917  0.124  0.499-  89 2.34  60 2.34   9 2.37  44 2.37
 181  0.917  0.876  0.751-  94 2.34  59 2.34  14 2.37  43 2.37
 182  0.749  0.000  0.625-  92 2.34  91 2.34  44 2.37  43 2.37
 183  0.918  0.125  0.750-  59 2.34  56 2.34  44 2.37  39 2.37
 184  0.750  0.999  0.874-  94 2.34  91 2.34  39 2.37  34 2.37
 185  0.750  0.751  0.126-  81 2.34  84 2.34  48 2.37  45 2.37
 186  0.915  0.875  0.000-  81 2.34  94 2.34   2 2.37  13 2.37
 187  0.751  0.750  0.875-  94 2.34  93 2.34  45 2.37  46 2.37
 188  0.917  0.624  0.999-  93 2.34  64 2.34  48 2.37  13 2.37
 189  0.917  0.376  0.251-  90 2.34  63 2.34  47 2.37  10 2.37
 190  0.749  0.500  0.125-  95 2.34  96 2.34  48 2.37  47 2.37
 191  0.918  0.625  0.250-  63 2.34  52 2.34  48 2.37  35 2.37
 192  0.750  0.499  0.374-  90 2.34  95 2.34  35 2.37  38 2.37
 
  LATTYP: Found a base centered orthorhombic cell.
 ALAT       =    21.4900005599
 B/A-ratio  =     1.0177756885
 C/A-ratio  =     0.7633317623
  
  Lattice vectors:
  
 A1 = (   0.0000000000,  15.3313770000,   0.0000000000)
 A2 = (   0.0000000000,  -0.2701040000, -15.3289980000)
 A3 = ( -16.4040000000,   0.0000000000,   0.0000000000)


Analysis of symmetry for initial positions (statically):
=====================================================================
 Subroutine PRICEL returns:
 Original cell was already a primitive cell.
 

 Routine SETGRP: Setting up the symmetry group for a 
 base centered orthorhombic supercell.


 Subroutine GETGRP returns: Found  2 space group operations
 (whereof  2 operations were pure point group operations)
 out of a pool of  8 trial point group operations.


The static configuration has the point symmetry C_2 .


Analysis of symmetry for dynamics (positions and initial velocities):
=====================================================================
 Subroutine PRICEL returns:
 Original cell was already a primitive cell.
 

 Routine SETGRP: Setting up the symmetry group for a 
 base centered orthorhombic supercell.


 Subroutine GETGRP returns: Found  2 space group operations
 (whereof  2 operations were pure point group operations)
 out of a pool of  8 trial point group operations.


The dynamic configuration has the point symmetry C_2 .


Analysis of structural, dynamic, and magnetic symmetry:
=====================================================================
 Subroutine PRICEL returns:
 Original cell was already a primitive cell.
 

 Routine SETGRP: Setting up the symmetry group for a 
 base centered orthorhombic supercell.


 Subroutine GETGRP returns: Found  2 space group operations
 (whereof  2 operations were pure point group operations)
 out of a pool of  8 trial point group operations.


The magnetic configuration has the point symmetry C_2 .


 Subroutine INISYM returns: Found  2 space group operations
 (whereof  2 operations are pure point group operations),
 and found     1 'primitive' translations

 
 
 KPOINTS: Generate by dasp                        

Automatic generation of k-mesh.
Space group operators:
 irot       det(A)        alpha          n_x          n_y          n_z        tau_x        tau_y        tau_z
    1     1.000000     0.000000     1.000000     0.000000     0.000000     0.000000     0.000000     0.000000
    2     1.000000   179.999999     0.000000    -0.700850     0.713308     0.000000     0.000000     0.000000
 
 Subroutine IBZKPT returns following result:
 ===========================================
 
 Found      1 irreducible k-points:
 
 Following reciprocal coordinates:
            Coordinates               Weight
  0.000000  0.000000  0.000000      1.000000
 
 Following cartesian coordinates:
            Coordinates               Weight
  0.000000  0.000000  0.000000      1.000000
 
 
 Subroutine IBZKPT_HF returns following result:
 ==============================================
 
 Found      1 k-points in 1st BZ
 the following      1 k-points will be used (e.g. in the exchange kernel)
 Following reciprocal coordinates:   # in IRBZ
  0.000000  0.000000  0.000000    1.00000000   1 t-inv F


--------------------------------------------------------------------------------------------------------




 Dimension of arrays:
   k-points           NKPTS =      1   k-points in BZ     NKDIM =      1   number of bands    NBANDS=   1136
   number of dos      NEDOS =    301   number of ions     NIONS =    192
   non local maximal  LDIM  =      6   non local SUM 2l+1 LMDIM =     18
   total plane-waves  NPLWV = ******
   max r-space proj   IRMAX =      1   max aug-charges    IRDMAX=   9247
   dimension x,y,z NGX =   108 NGY =   98 NGZ =   98
   dimension x,y,z NGXF=   216 NGYF=  196 NGZF=  196
   support grid    NGXF=   216 NGYF=  196 NGZF=  196
   ions per type =              48  48  96
   NGX,Y,Z   is equivalent  to a cutoff of  10.95, 10.63, 10.63 a.u.
   NGXF,Y,Z  is equivalent  to a cutoff of  21.89, 21.25, 21.25 a.u.

 SYSTEM =  unknown system                          
 POSCAR =  Cubic_cell                              

 Startparameter for this run:
   NWRITE =      2    write-flag & timer
   PREC   = accura    normal or accurate (medium, high low for compatibility)
   ISTART =      0    job   : 0-new  1-cont  2-samecut
   ICHARG =      1    charge: 1-file 2-atom 10-const
   ISPIN  =      2    spin polarized calculation?
   LNONCOLLINEAR =      F non collinear calculations
   LSORBIT =      F    spin-orbit coupling
   INIWAV =      1    electr: 0-lowe 1-rand  2-diag
   LASPH  =      F    aspherical Exc in radial PAW
   METAGGA=      F    non-selfconsistent MetaGGA calc.

 Electronic Relaxation 1
   ENCUT  =  373.0 eV  27.41 Ry    5.24 a.u.  25.83 24.14 24.14*2*pi/ulx,y,z
   ENINI  =  373.0     initial cutoff
   ENAUG  =  575.9 eV  augmentation charge cutoff
   NELM   =    200;   NELMIN=  2; NELMDL= -5     # of ELM steps 
   EDIFF  = 0.1E-04   stopping-criterion for ELM
   LREAL  =      F    real-space projection
   NLSPLINE    = F    spline interpolate recip. space projectors
   LCOMPAT=      F    compatible to vasp.4.4
   GGA_COMPAT  = T    GGA compatible to vasp.4.4-vasp.4.6
   LMAXPAW     = -100 max onsite density
   LMAXMIX     =    2 max onsite mixed and CHGCAR
   VOSKOWN=      0    Vosko Wilk Nusair interpolation
   ROPT   =    0.00000   0.00000   0.00000
 Ionic relaxation
   EDIFFG = -.1E-01   stopping-criterion for IOM
   NSW    =      0    number of steps for IOM
   NBLOCK =      1;   KBLOCK =      1    inner block; outer block 
   IBRION =     -1    ionic relax: 0-MD 1-quasi-New 2-CG
   NFREE  =      0    steps in history (QN), initial steepest desc. (CG)
   ISIF   =      0    stress and relaxation
   IWAVPR =     10    prediction:  0-non 1-charg 2-wave 3-comb
   ISYM   =      3    0-nonsym 1-usesym 2-fastsym
   LCORR  =      T    Harris-Foulkes like correction to forces

   POTIM  = 0.5000    time-step for ionic-motion
   TEIN   =    0.0    initial temperature
   TEBEG  =    0.0;   TEEND  =   0.0 temperature during run
   SMASS  =  -3.00    Nose mass-parameter (am)
   estimated Nose-frequenzy (Omega)   =  0.10E-29 period in steps =****** mass=  -0.615E-26a.u.
   SCALEE = 1.0000    scale energy and forces
   NPACO  =    256;   APACO  = 16.0  distance and # of slots for P.C.
   PSTRESS=    0.0 pullay stress

  Mass of Ions in am
   POMASS =  65.39 72.61 30.97
  Ionic Valenz
   ZVAL   =  12.00 14.00  5.00
  Atomic Wigner-Seitz radii
   RWIGS  =  -1.00 -1.00 -1.00
  virtual crystal weights 
   VCA    =   1.00  1.00  1.00
   NELECT =    1728.0000    total number of electrons
   NUPDOWN=      -1.0000    fix difference up-down

 DOS related values:
   EMIN   =  10.00;   EMAX   =-10.00  energy-range for DOS
   EFERMI =   0.00
   ISMEAR =     0;   SIGMA  =   0.05  broadening in eV -4-tet -1-fermi 0-gaus

 Electronic relaxation 2 (details)
   IALGO  =     53    algorithm
   LDIAG  =      T    sub-space diagonalisation (order eigenvalues)
   LSUBROT=      F    optimize rotation matrix (better conditioning)
   TURBO    =      0    0=normal 1=particle mesh
   IRESTART =      0    0=no restart 2=restart with 2 vectors
   NREBOOT  =      0    no. of reboots
   NMIN     =      0    reboot dimension
   EREF     =   0.00    reference energy to select bands
   IMIX   =      4    mixing-type and parameters
     AMIX     =   0.40;   BMIX     =  1.00
     AMIX_MAG =   1.60;   BMIX_MAG =  1.00
     AMIN     =   0.10
     WC   =   100.;   INIMIX=   1;  MIXPRE=   1;  MAXMIX= -45

 Intra band minimization:
   WEIMIN = 0.0000     energy-eigenvalue tresh-hold
   EBREAK =  0.22E-08  absolut break condition
   DEPER  =   0.30     relativ break condition  

   TIME   =   0.40     timestep for ELM

  volume/ion in A,a.u.               =      20.08       135.50
  Fermi-wavevector in a.u.,A,eV,Ry     =   1.252875  2.367591 21.357018  1.569697
  Thomas-Fermi vector in A             =   2.386755
 
 Write flags
   LWAVE        =      T    write WAVECAR
   LDOWNSAMPLE  =      F    k-point downsampling of WAVECAR
   LCHARG       =      T    write CHGCAR
   LVTOT        =      F    write LOCPOT, total local potential
   LVHAR        =      T    write LOCPOT, Hartree potential only
   LELF         =      F    write electronic localiz. function (ELF)
   LORBIT       =     10    0 simple, 1 ext, 2 COOP (PROOUT), +10 PAW based schemes


 Dipole corrections
   LMONO  =      F    monopole corrections only (constant potential shift)
   LDIPOL =      F    correct potential (dipole corrections)
   IDIPOL =      0    1-x, 2-y, 3-z, 4-all directions 
   EPSILON=  1.0000000 bulk dielectric constant

 Core level calculations are selected ICORELEVEL =  1
 Exchange correlation treatment:
   GGA     =    PE    GGA type
   LEXCH   =     8    internal setting for exchange type
   VOSKOWN=      0    Vosko Wilk Nusair interpolation
   EXXOEP  =     0    0=HF, 1=EXX-LHF (local Hartree Fock) 2=EXX OEP
   LHFCALC =     T    Hartree Fock is set to
   LSYMGRAD=     F    symmetrize gradient (conserves proper symmetry)
   PRECFOCK=fast      Normal, Fast or Accurate (Low or Medium for compatibility)
   LRHFCALC=     F    long range Hartree Fock
   LRSCOR  =     F    long range correlation only (use DFT for short range part)
   LTHOMAS =     F    Thomas Fermi screening in HF
   LMODELHF=     F    short range full HF, long range fraction AEXX
   ENCUT4O =  -1.0   cutoff for four orbital integrals eV
   LMAXFOCK=     4    L truncation for augmentation on plane wave grid
   LMAXFOCKAE=  -1    L truncation for all-electron charge restoration on plane wave grid
   NMAXFOCKAE=   1    number of basis functions for all-electron charge restoration
   LFOCKAEDFT=     F  apply the AE augmentation even for DFT
   NKREDX  =     1    reduce k-point grid by
   NKREDY  =     1    reduce k-point grid by
   NKREDZ  =     1    reduce k-point grid by
   SHIFTRED=     F    shift reduced grid of Gamma
   HFKIDENT=     F    idential grid for each k-point
   ODDONLY =     F    use only odd q-grid points
   EVENONLY=     F    use only even q-grid points
   HFALPHA =   -1.0000 decay constant for conv. correction
   MCALPHA =    0.0000 extent of test-charge in conv. correction in multipole expansion
   AEXX    =    0.2700 exact exchange contribution
   HFSCREEN=    0.2000 screening length (either q_TF or 0.3 A-1)
   HFSCREENC=   0.2000 screening length for correlation (either q_TF or 0.3 A-1)
   HFRCUT  =    0.0000 spherical cutoff for potential kernel
   ALDAX   =    0.7300 LDA exchange part
   AGGAX   =    0.7300 GGA exchange part
   ALDAC   =    1.0000 LDA correlation
   AGGAC   =    1.0000 GGA correlation
   ENCUTFOCK=  -1.0 apply spherical cutoff to Coloumb kernel
   NBANDSGWLOW=     1    first orbital included in HF term
   NBLOCK_FOCK=    64    blocking factor in FOCK_ACC
 Linear response parameters
   LEPSILON=     F    determine dielectric tensor
   LRPA    =     F    only Hartree local field effects (RPA)
   LNABLA  =     F    use nabla operator in PAW spheres
   LVEL    =     F    velocity operator in full k-point grid
   LINTERFAST=   F  fast interpolation
   KINTER  =     0    interpolate to denser k-point grid
   CSHIFT  =0.1000    complex shift for real part using Kramers Kronig
   OMEGAMAX=  -1.0    maximum frequency
   DEG_THRESHOLD= 0.2000000E-02 threshold for treating states as degnerate
   RTIME   =   -0.100 relaxation time in fs
  (WPLASMAI=    0.000 imaginary part of plasma frequency in eV, 0.658/RTIME)
   DFIELD  = 0.0000000 0.0000000 0.0000000 field for delta impulse in time
 
 Orbital magnetization related:
   ORBITALMAG=     F  switch on orbital magnetization
   LCHIMAG   =     F  perturbation theory with respect to B field
   DQ        =  0.001000  dq finite difference perturbation B field
   LLRAUG    =     F  two centre corrections for induced B field



--------------------------------------------------------------------------------------------------------


 Static calculation
 charge density and potential will be updated during run
 spin polarized calculation
 Conjugate gradient for all bands (Freysoldt, et al. PRB 79, 241103 (2009))
 perform sub-space diagonalisation
    before iterative eigenvector-optimisation
 modified Broyden-mixing scheme, WC =      100.0
 initial mixing is a Kerker type mixing with AMIX =  0.4000 and BMIX =      1.0000
 Hartree-type preconditioning will be used
 using additional bands          272
 reciprocal scheme for non local part
 use partial core corrections
 no Harris-corrections to forces 
 use gradient corrections 
 use of overlap-Matrix (Vanderbilt PP)
 Gauss-broadening in eV      SIGMA  =   0.05


--------------------------------------------------------------------------------------------------------


  energy-cutoff  :      373.00
  volume of cell :     3855.18
      direct lattice vectors                 reciprocal lattice vectors
    16.404000000  0.000000000  0.000000000     0.060960741  0.000000000  0.000000000
     0.000000000 15.331377000  0.000000000     0.000000000  0.065225713 -0.001149307
     0.000000000  0.270104000 15.328998000     0.000000000  0.000000000  0.065235836

  length of vectors
    16.404000000 15.331377000 15.331377494     0.060960741  0.065235838  0.065235836


 
 k-points in units of 2pi/SCALE and weight: Generate by dasp                        
   0.00000000  0.00000000  0.00000000       1.000
 
 k-points in reciprocal lattice and weights: Generate by dasp                        
   0.00000000  0.00000000  0.00000000       1.000
 
 position of ions in fractional coordinates (direct lattice) 
   0.99999900  0.99988000  0.25012000
   0.00000000  0.00000000  0.00000000
   0.16666600  0.62487900  0.37512000
   0.16666600  0.87512000  0.37487900
   0.00000000  0.49988000  0.75011900
   0.00000000  0.50011900  0.49988000
   0.16666500  0.12487800  0.87512000
   0.16666500  0.37512000  0.87487900
   0.99999900  0.24988000  0.50011900
   0.99999900  0.25011800  0.24988000
   0.16666600  0.87487900  0.62512000
   0.16666600  0.12512000  0.62487900
   0.00000000  0.74987900  0.00011900
   0.00000000  0.75011900  0.74988000
   0.16666600  0.37487900  0.12512000
   0.16666600  0.62511900  0.12487900
   0.33333300  0.99988000  0.25011800
   0.33333200  0.00011900  0.99988000
   0.50000000  0.62487900  0.37512000
   0.50000000  0.87512000  0.37487900
   0.33333200  0.49988000  0.75011900
   0.33333200  0.50011900  0.49988000
   0.50000000  0.12487900  0.87512000
   0.50000000  0.37512000  0.87487900
   0.33333200  0.24988000  0.50011900
   0.33333300  0.25012000  0.24988000
   0.49999900  0.87487900  0.62512000
   0.49999900  0.12512000  0.62487900
   0.33333200  0.74988000  0.00011900
   0.33333200  0.75012000  0.74988000
   0.50000000  0.37487900  0.12512000
   0.49999900  0.62511900  0.12487900
   0.66666600  0.99988000  0.25011800
   0.66666600  0.00011900  0.99988000
   0.83333200  0.62487900  0.37512000
   0.83333200  0.87512000  0.37487900
   0.66666600  0.49988000  0.75011900
   0.66666600  0.50011900  0.49988000
   0.83333300  0.12487900  0.87512100
   0.83333200  0.37512000  0.87487900
   0.66666600  0.24988000  0.50011900
   0.66666600  0.25011800  0.24987900
   0.83333200  0.87487900  0.62512000
   0.83333300  0.12512000  0.62487900
   0.66666500  0.74988000  0.00011900
   0.66666500  0.75011900  0.74987900
   0.83333200  0.37487900  0.12512000
   0.83333200  0.62511900  0.12487900
   0.16666700  0.87510000  0.12489800
   0.16666600  0.12490000  0.12509900
   0.99999900  0.75010200  0.49989700
   0.00000000  0.74989700  0.25010200
   0.16666600  0.37510100  0.62489800
   0.16666600  0.62489800  0.62510200
   0.99999900  0.25009900  0.99989700
   0.00000000  0.24989700  0.75010200
   0.16666500  0.12510000  0.37489800
   0.16666600  0.37489800  0.37510200
   0.00000000  0.00010200  0.74989900
   0.00000000  0.99989700  0.50010200
   0.16666500  0.62510100  0.87489800
   0.16666500  0.87490000  0.87509900
   0.00000000  0.50010200  0.24989700
   0.99999900  0.49989700  0.00010200
   0.50000000  0.87510100  0.12489800
   0.50000000  0.12489700  0.12510100
   0.33333200  0.75010200  0.49989700
   0.33333300  0.74989700  0.25010200
   0.50000000  0.37510100  0.62489800
   0.49999900  0.62489800  0.62510100
   0.33333200  0.25010100  0.99989700
   0.33333200  0.24989700  0.75010200
   0.50000000  0.12510000  0.37489800
   0.50000000  0.37489800  0.37510100
   0.33333200  0.00010200  0.74989700
   0.33333300  0.99989700  0.50010200
   0.49999900  0.62510100  0.87489800
   0.49999900  0.87489700  0.87510200
   0.33333300  0.50010200  0.24989700
   0.33333200  0.49989700  0.00010200
   0.83333100  0.87510100  0.12489900
   0.83333300  0.12490000  0.12509800
   0.66666500  0.75010200  0.49989700
   0.66666500  0.74989700  0.25010200
   0.83333200  0.37510100  0.62489800
   0.83333200  0.62489700  0.62510100
   0.66666600  0.25010100  0.99989700
   0.66666600  0.24989700  0.75010200
   0.83333300  0.12510000  0.37489800
   0.83333200  0.37489700  0.37510100
   0.66666600  0.00010200  0.74989700
   0.66666600  0.99989700  0.50010200
   0.83333300  0.62510100  0.87489800
   0.83333200  0.87489900  0.87509900
   0.66666600  0.50010200  0.24989700
   0.66666500  0.49989700  0.00010200
   0.08333300  0.00119500  0.37619400
   0.24861600  0.12499900  0.24999900
   0.08472400  0.99999700  0.12501400
   0.24999900  0.87380400  0.24880300
   0.25000000  0.62619400  0.50119400
   0.08195000  0.75000000  0.37500000
   0.25138100  0.87499900  0.49999900
   0.08333200  0.74880300  0.62380400
   0.08333200  0.50119400  0.87619400
   0.24861600  0.62500000  0.75000000
   0.08471500  0.49999900  0.62500000
   0.24999900  0.37380400  0.74880300
   0.24999900  0.12619400  0.00119500
   0.08195100  0.24999900  0.87500000
   0.25138100  0.37499900  0.99999900
   0.08333200  0.24880300  0.12380400
   0.08333200  0.25119500  0.62619400
   0.24861600  0.37500000  0.50000000
   0.08471500  0.24999900  0.37500000
   0.24999900  0.12380400  0.49880300
   0.25000000  0.87619300  0.75119500
   0.08195000  0.00000000  0.62499900
   0.25138100  0.12500000  0.74999900
   0.08332400  0.99880100  0.87381900
   0.08333200  0.75119500  0.12619400
   0.24861600  0.87500000  0.00000000
   0.08471500  0.74999900  0.87499900
   0.24999900  0.62380400  0.99880300
   0.25000000  0.37619400  0.25119500
   0.08195000  0.49999900  0.12500000
   0.25138100  0.62500000  0.24999900
   0.08333200  0.49880300  0.37380400
   0.41666600  0.00119500  0.37619400
   0.58194900  0.12500000  0.25000000
   0.41804800  0.99999900  0.12499900
   0.58333200  0.87380400  0.24880300
   0.58333300  0.62619400  0.50119400
   0.41528300  0.75000000  0.37499900
   0.58471500  0.87499900  0.49999900
   0.41666600  0.74880300  0.62380400
   0.41666600  0.50119400  0.87619400
   0.58195000  0.62500000  0.75000000
   0.41804900  0.50000000  0.62499900
   0.58333200  0.37380400  0.74880300
   0.58333200  0.12619400  0.00119500
   0.41528400  0.24999900  0.87500000
   0.58471400  0.37499900  0.99999900
   0.41666600  0.24880300  0.12380400
   0.41666600  0.25119500  0.62619400
   0.58194900  0.37500000  0.49999900
   0.41804800  0.24999900  0.37499900
   0.58333200  0.12380400  0.49880300
   0.58333200  0.87619400  0.75119500
   0.41528400  0.00000000  0.62499900
   0.58471400  0.12499900  0.74999900
   0.41666600  0.99880300  0.87380400
   0.41666600  0.75119500  0.12619400
   0.58195000  0.87500000  0.00000000
   0.41804900  0.74999900  0.87499900
   0.58333200  0.62380400  0.99880300
   0.58333200  0.37619400  0.25119500
   0.41528300  0.49999900  0.12500000
   0.58471500  0.62500000  0.24999900
   0.41666500  0.49880300  0.37380400
   0.75000000  0.00119500  0.37619400
   0.91528300  0.12500000  0.25000000
   0.75138200  0.99999900  0.12499900
   0.91666600  0.87380400  0.24880300
   0.91666600  0.62619400  0.50119400
   0.74861700  0.75000000  0.37499900
   0.91804800  0.87499900  0.49999900
   0.74999900  0.74880300  0.62380400
   0.75000000  0.50119400  0.87619400
   0.91528300  0.62499900  0.75000000
   0.75138200  0.49999900  0.62499900
   0.91666600  0.37380400  0.74880300
   0.91667400  0.12617900  0.00119700
   0.74861700  0.24999900  0.87499900
   0.91804800  0.37499900  0.99999900
   0.74999800  0.24880300  0.12380500
   0.75000000  0.25119500  0.62619400
   0.91528300  0.37499900  0.50000000
   0.75138200  0.24999900  0.37499900
   0.91666600  0.12380400  0.49880300
   0.91666600  0.87619400  0.75119500
   0.74861700  0.00000000  0.62499900
   0.91804700  0.12499900  0.74999900
   0.75000000  0.99880300  0.87380400
   0.75000000  0.75119500  0.12619400
   0.91527400  0.87498400  0.00000000
   0.75138200  0.75000000  0.87500000
   0.91666500  0.62380400  0.99880300
   0.91666600  0.37619400  0.25119500
   0.74861700  0.49999900  0.12500000
   0.91804800  0.62499900  0.24999900
   0.74999900  0.49880300  0.37380400
 
 position of ions in cartesian coordinates  (Angst):
  16.40398360 15.39709565  3.83408898
   0.00000000  0.00000000  0.00000000
   2.73398906  9.68157694  5.75021373
   2.73398906 13.51805096  5.74651944
   0.00000000  7.86645888 11.49857265
   0.00000000  7.80253252  7.66265952
   2.73397266  2.15092511 13.41471273
   2.73397266  5.98741446 13.41101844
  16.40398360  3.96608863  7.66632315
  16.40398360  3.90214694  3.83041002
   2.73398906 13.58194719  9.58246323
   2.73398906  2.08704421  9.57876894
   0.00000000 11.49670980  0.00182415
   0.00000000 11.70290277 11.49490902
   2.73398906  5.78120669  1.91796423
   2.73398906  9.61766538  1.91426994
   5.46799453 15.39709511  3.83405832
   5.46797813  0.27189602 15.32715852
   8.20200000  9.68157694  5.75021373
   8.20200000 13.51805096  5.74651944
   5.46797813  7.86645888 11.49857265
   5.46797813  7.80253252  7.66265952
   8.20200000  2.15094044 13.41471273
   8.20200000  5.98741446 13.41101844
   5.46797813  3.96608863  7.66632315
   5.46799453  3.90217760  3.83041002
   8.20198360 13.58194719  9.58246323
   8.20198360  2.08704421  9.57876894
   5.46797813 11.49672513  0.00182415
   5.46797813 11.70291810 11.49490902
   8.20200000  5.78120669  1.91796423
   8.20198360  9.61766538  1.91426994
  10.93598906 15.39709511  3.83405832
  10.93598906  0.27189602 15.32715852
  13.66997813  9.68157694  5.75021373
  13.66997813 13.51805096  5.74651944
  10.93598906  7.86645888 11.49857265
  10.93598906  7.80253252  7.66265952
  13.66999453  2.15094071 13.41472806
  13.66997813  5.98741446 13.41101844
  10.93598906  3.96608863  7.66632315
  10.93598906  3.90214667  3.83039469
  13.66997813 13.58194719  9.58246323
  13.66999453  2.08704421  9.57876894
  10.93597266 11.49672513  0.00182415
  10.93597266 11.70290250 11.49489369
  13.66997813  5.78120669  1.91796423
  13.66997813  9.61766538  1.91426994
   2.73400547 13.45022346  1.91456119
   2.73398906  1.94867873  1.91764232
  16.40398360 11.63512073  7.66292011
   0.00000000 11.56450717  3.83381306
   2.73398906  5.91960229  9.57906019
   2.73398906  9.74938938  9.58218731
  16.40398360  4.10443824 15.32741911
   0.00000000  4.03387067 11.49831206
   2.73397266  2.01921671  5.74681069
   2.73398906  5.84901913  5.74993781
   0.00000000  0.20411452 11.49520027
   0.00000000 15.46487742  7.66606256
   2.73397266  9.81997254 13.41130969
   2.73397266 13.64978948 13.41439082
   0.00000000  7.73475048  3.83067061
  16.40398360  7.66413692  0.00156356
   8.20200000 13.45023879  1.91456119
   8.20200000  1.94863327  1.91767298
   5.46797813 11.63512073  7.66292011
   5.46799453 11.56450717  3.83381306
   8.20200000  5.91960229  9.57906019
   8.20198360  9.74938911  9.58217198
   5.46797813  4.10446890 15.32741911
   5.46797813  4.03387067 11.49831206
   8.20200000  2.01921671  5.74681069
   8.20200000  5.84901886  5.74992248
   5.46797813  0.20411398 11.49516961
   5.46799453 15.46487742  7.66606256
   8.20198360  9.81997254 13.41130969
   8.20198360 13.64974429 13.41443681
   5.46799453  7.73475048  3.83067061
   5.46797813  7.66413692  0.00156356
  13.66996172 13.45023906  1.91457652
  13.66999453  1.94867846  1.91762699
  10.93597266 11.63512073  7.66292011
  10.93597266 11.56450717  3.83381306
  13.66997813  5.91960229  9.57906019
  13.66997813  9.74937377  9.58217198
  10.93598906  4.10446890 15.32741911
  10.93598906  4.03387067 11.49831206
  13.66999453  2.01921671  5.74681069
  13.66997813  5.84900352  5.74992248
  10.93598906  0.20411398 11.49516961
  10.93598906 15.46487742  7.66606256
  13.66999453  9.81997254 13.41130969
  13.66997813 13.64977415 13.41439082
  10.93598906  7.73475048  3.83067061
  10.93597266  7.66413692  0.00156356
   1.36699453  0.11993250  5.76667707
   4.07829686  1.98393252  3.83223417
   1.38981250 15.36509779  1.91633936
   4.10098360 13.46382123  3.81390069
   4.10100000  9.73579079  7.68280182
   1.34430780 11.59982175  5.74837425
   4.12365392 13.54999127  7.66448367
   1.36697813 11.64867305  9.56229027
   1.36697813  7.92065767 13.43117607
   4.07829686  9.78468863 11.49674850
   1.38966486  7.83448817  9.58062375
   4.10098360  5.93318473 11.47839969
   4.10098360  1.93505056  0.01831815
   1.34432420  4.06916992 13.41287325
   4.12365392  6.01935477 15.32898267
   1.36697813  3.84793255  1.89779127
   1.36697813  4.02030275  9.59892657
   4.07829686  5.88431837  7.66449900
   1.38966486  3.93411792  5.74837425
   4.10098360  2.03281448  7.64615019
   4.10100000 13.63614598 11.51506665
   1.34430780  0.16881473  9.58060842
   4.12365392  2.11899985 11.49673317
   1.36684690 15.54901669 13.39476970
   1.36697813 11.55093925  1.93442757
   4.07829686 13.41495487  0.00000000
   1.38966486 11.73485815 13.41285792
   4.10098360  9.83355498 15.31064919
   4.10100000  5.83542081  3.85056765
   1.34430780  7.69943617  1.91612475
   4.12365392  9.64963635  3.83223417
   1.36697813  7.74830280  5.73004077
   6.83498906  0.11993250  5.76667707
   9.54629140  1.98394812  3.83224950
   6.85765939 15.36512440  1.91610942
   9.56897813 13.46382123  3.81390069
   9.56899453  9.73579079  7.68280182
   6.81230233 11.59982148  5.74835892
   9.59166486 13.54999127  7.66448367
   6.83498906 11.64867305  9.56229027
   6.83498906  7.92065767 13.43117607
   9.54630780  9.78468863 11.49674850
   6.85767580  7.83450323  9.58060842
   9.56897813  5.93318473 11.47839969
   9.56897813  1.93505056  0.01831815
   6.81231874  4.06916992 13.41287325
   9.59164846  6.01935477 15.32898267
   6.83498906  3.84793255  1.89779127
   6.83498906  4.02030275  9.59892657
   9.54629140  5.88431810  7.66448367
   6.85765939  3.93411765  5.74835892
   9.56897813  2.03281448  7.64615019
   9.56897813 13.63616131 11.51506665
   6.81231874  0.16881473  9.58060842
   9.59164846  2.11898452 11.49673317
   6.83498906 15.54904330 13.39453977
   6.83498906 11.55093925  1.93442757
   9.54630780 13.41495487  0.00000000
   6.85767580 11.73485815 13.41285792
   9.56897813  9.83355498 15.31064919
   9.56897813  5.83542081  3.85056765
   6.81230233  7.69943617  1.91612475
   9.59166486  9.64963635  3.83223417
   6.83497266  7.74830280  5.73004077
  12.30300000  0.11993250  5.76667707
  15.01430233  1.98394812  3.83224950
  12.32567033 15.36512440  1.91610942
  15.03698906 13.46382123  3.81390069
  15.03698906  9.73579079  7.68280182
  12.28031327 11.59982148  5.74835892
  15.05965939 13.54999127  7.66448367
  12.30298360 11.64867305  9.56229027
  12.30300000  7.92065767 13.43117607
  15.01430233  9.78467329 11.49674850
  12.32567033  7.83448790  9.58060842
  15.03698906  5.93318473 11.47839969
  15.03712030  1.93482113  0.01834881
  12.28031327  4.06916965 13.41285792
  15.05965939  6.01935477 15.32898267
  12.30296719  3.84793282  1.89780660
  12.30300000  4.02030275  9.59892657
  15.01430233  5.88430304  7.66449900
  12.32567033  3.93411765  5.74835892
  15.03698906  2.03281448  7.64615019
  15.03698906 13.63616131 11.51506665
  12.28031327  0.16881473  9.58060842
  15.05964299  2.11898452 11.49673317
  12.30300000 15.54904330 13.39453977
  12.30300000 11.55093925  1.93442757
  15.01415470 13.41470957  0.00000000
  12.32567033 11.73487375 13.41287325
  15.03697266  9.83355498 15.31064919
  15.03698906  5.83542081  3.85056765
  12.28031327  7.69943617  1.91612475
  15.05965939  9.64962102  3.83223417
  12.30298360  7.74830280  5.73004077
 


--------------------------------------------------------------------------------------------------------


 use parallel FFT for orbitals z direction half grid
 k-point  1 :   0.0000 0.0000 0.0000  plane waves:   31525

 maximum and minimum number of plane-waves per node :      3949     3935

 maximum number of plane-waves:     31525
 maximum index in each direction: 
   IXMAX=   25   IYMAX=   24   IZMAX=   24
   IXMIN=  -25   IYMIN=  -24   IZMIN=    0


 parallel 3D FFT for wavefunctions:
    minimum data exchange during FFTs selected (reduces bandwidth)
 parallel 3D FFT for charge:
    minimum data exchange during FFTs selected (reduces bandwidth)


 FFT grid for exact exchange (Hartree Fock) 
  NGX = 54; NGY = 50; NGZ = 50

 use parallel FFT for orbitals z direction half grid
 
 Radii for the augmentation spheres in the non-local exchange
 for species   1 augmentation radius   1.230 (default was   0.952)
       energy cutoff for augmentation   1492.0
 for species   2 augmentation radius   1.227 (default was   0.991)
       energy cutoff for augmentation   1492.0
 for species   3 augmentation radius   1.022 (default was   0.959)
       energy cutoff for augmentation   1492.0

 real space projection operators:
  total allocation   :       6043.41 KBytes
  max/ min on nodes  :        934.53        560.75

 Maximum index for augmentation-charges in exchange           52
  SETUP_FOCK is finished

 total amount of memory used by VASP MPI-rank0    96915. kBytes
=======================================================================

   base      :      30000. kBytes
   nonl-proj :      13847. kBytes
   fftplans  :       5975. kBytes
   grid      :      17618. kBytes
   one-center:        373. kBytes
   HF        :        194. kBytes
   nonlr-proj:        882. kBytes
   wavefun   :      28026. kBytes
 
     INWAV:  cpu time    0.0000: real time    0.0004
 Broyden mixing: mesh for mixing (old mesh)
   NGX = 51   NGY = 49   NGZ = 49
  (NGX  =216   NGY  =196   NGZ  =196)
  gives a total of 122451 points

 initial charge density was supplied:
 charge density of overlapping atoms calculated
 number of electron    1728.0000000 magnetization     192.0000000
 keeping initial charge density in first step


--------------------------------------------------------------------------------------------------------


 Maximum index for augmentation-charges          505 (set IRDMAX)


--------------------------------------------------------------------------------------------------------


 First call to EWALD:  gamma=   0.113
 Maximum number of real-space cells 3x 3x 3
 Maximum number of reciprocal cells 3x 3x 3

    FEWALD:  cpu time    0.0057: real time    0.0057


--------------------------------------- Iteration      1(   1)  ---------------------------------------


    POTLOK:  cpu time    0.5929: real time    0.5949
    SETDIJ:  cpu time    0.2018: real time    0.2020
    TRIAL :  cpu time   10.7995: real time   10.8330
    CORREC:  cpu time    0.0012: real time    0.0014
    --------------------------------------------
      LOOP:  cpu time   11.6046: real time   11.7208

 eigenvalue-minimisations  :  5712
 total energy-change (2. order) : 0.3857970E+05  (-0.4226236E+05)
 number of electron    1728.0000000 magnetization     192.0000000
 augmentation part     1728.0000000 magnetization     192.0000000

 Free energy of the ion-electron system (eV)
  ---------------------------------------------------
  alpha Z        PSCENC =      6923.22574738
  Ewald energy   TEWEN  =   -126595.94951108
  -Hartree energ DENC   =    -72446.89397442
  -exchange      EXHF   =         0.00000000
  -V(xc)+E(xc)   XCENC  =      4877.90826541
  PAW double counting   =    147595.99871802  -174236.46074284
  entropy T*S    EENTRO =        -0.02890427
  eigenvalues    EBANDS =     27436.78014106
  atomic energy  EATOM  =    225025.12006734
  ---------------------------------------------------
  free energy    TOTEN  =     38579.69980661 eV

  energy without entropy =    38579.72871087  energy(sigma->0) =    38579.71425874
  exchange ACFDT corr.  =         0.00000000  see jH, gK, PRB 81, 115126


--------------------------------------------------------------------------------------------------------




--------------------------------------- Iteration      1(   2)  ---------------------------------------


    TRIAL :  cpu time   10.8874: real time   10.9237
    CORREC:  cpu time    0.0016: real time    0.0024
    --------------------------------------------
      LOOP:  cpu time   10.8902: real time   11.4630

 eigenvalue-minimisations  :  5776
 total energy-change (2. order) :-0.2376519E+05  (-0.2192040E+05)
 number of electron    1728.0000000 magnetization     192.0000000
 augmentation part     1728.0000000 magnetization     192.0000000

 Free energy of the ion-electron system (eV)
  ---------------------------------------------------
  alpha Z        PSCENC =      6923.22574738
  Ewald energy   TEWEN  =   -126595.94951108
  -Hartree energ DENC   =    -72446.89397442
  -exchange      EXHF   =         0.00000000
  -V(xc)+E(xc)   XCENC  =      4877.90826541
  PAW double counting   =    147595.99871802  -174236.46074284
  entropy T*S    EENTRO =        -0.05809671
  eigenvalues    EBANDS =      3671.61774871
  atomic energy  EATOM  =    225025.12006734
  ---------------------------------------------------
  free energy    TOTEN  =     14814.50822181 eV

  energy without entropy =    14814.56631852  energy(sigma->0) =    14814.53727016
  exchange ACFDT corr.  =         0.00000000  see jH, gK, PRB 81, 115126


--------------------------------------------------------------------------------------------------------




--------------------------------------- Iteration      1(   3)  ---------------------------------------


    TRIAL :  cpu time   13.7652: real time   13.7988
    CORREC:  cpu time    0.0021: real time    0.0024
    --------------------------------------------
      LOOP:  cpu time   13.7676: real time   13.8014

 eigenvalue-minimisations  :  7760
 total energy-change (2. order) :-0.7985297E+04  (-0.7341579E+04)
 number of electron    1728.0000000 magnetization     192.0000000
 augmentation part     1728.0000000 magnetization     192.0000000

 Free energy of the ion-electron system (eV)
  ---------------------------------------------------
  alpha Z        PSCENC =      6923.22574738
  Ewald energy   TEWEN  =   -126595.94951108
  -Hartree energ DENC   =    -72446.89397442
  -exchange      EXHF   =         0.00000000
  -V(xc)+E(xc)   XCENC  =      4877.90826541
  PAW double counting   =    147595.99871802  -174236.46074284
  entropy T*S    EENTRO =        -0.06578207
  eigenvalues    EBANDS =     -4313.67189687
  atomic energy  EATOM  =    225025.12006734
  ---------------------------------------------------
  free energy    TOTEN  =      6829.21089087 eV

  energy without entropy =     6829.27667294  energy(sigma->0) =     6829.24378190
  exchange ACFDT corr.  =         0.00000000  see jH, gK, PRB 81, 115126


--------------------------------------------------------------------------------------------------------




--------------------------------------- Iteration      1(   4)  ---------------------------------------


    TRIAL :  cpu time   14.4422: real time   14.4763
    CORREC:  cpu time    0.0021: real time    0.0031
    --------------------------------------------
      LOOP:  cpu time   14.4457: real time   14.4843

 eigenvalue-minimisations  :  8240
 total energy-change (2. order) :-0.2465554E+04  (-0.2292011E+04)
 number of electron    1728.0000000 magnetization     192.0000000
 augmentation part     1728.0000000 magnetization     192.0000000

 Free energy of the ion-electron system (eV)
  ---------------------------------------------------
  alpha Z        PSCENC =      6923.22574738
  Ewald energy   TEWEN  =   -126595.94951108
  -Hartree energ DENC   =    -72446.89397442
  -exchange      EXHF   =         0.00000000
  -V(xc)+E(xc)   XCENC  =      4877.90826541
  PAW double counting   =    147595.99871802  -174236.46074284
  entropy T*S    EENTRO =        -0.03514759
  eigenvalues    EBANDS =     -6779.25678225
  atomic energy  EATOM  =    225025.12006734
  ---------------------------------------------------
  free energy    TOTEN  =      4363.65663997 eV

  energy without entropy =     4363.69178756  energy(sigma->0) =     4363.67421376
  exchange ACFDT corr.  =         0.00000000  see jH, gK, PRB 81, 115126


--------------------------------------------------------------------------------------------------------




--------------------------------------- Iteration      1(   5)  ---------------------------------------


    TRIAL :  cpu time   15.5978: real time   15.6307
    CORREC:  cpu time    0.0019: real time    0.0026
    CHARGE:  cpu time    0.2871: real time    0.3152
    --------------------------------------------
      LOOP:  cpu time   15.8873: real time   15.9499

 eigenvalue-minimisations  :  9024
 total energy-change (2. order) :-0.6788062E+03  (-0.6461045E+03)
 number of electron    1728.0000734 magnetization       0.0225273
 augmentation part      744.8571587 magnetization       2.8679725

 Free energy of the ion-electron system (eV)
  ---------------------------------------------------
  alpha Z        PSCENC =      6923.22574738
  Ewald energy   TEWEN  =   -126595.94951108
  -Hartree energ DENC   =    -72446.89397442
  -exchange      EXHF   =         0.00000000
  -V(xc)+E(xc)   XCENC  =      4877.90826541
  PAW double counting   =    147595.99871802  -174236.46074284
  entropy T*S    EENTRO =        -0.00211968
  eigenvalues    EBANDS =     -7458.09603490
  atomic energy  EATOM  =    225025.12006734
  ---------------------------------------------------
  free energy    TOTEN  =      3684.85041523 eV

  energy without entropy =     3684.85253491  energy(sigma->0) =     3684.85147507
  exchange ACFDT corr.  =         0.00000000  see jH, gK, PRB 81, 115126


--------------------------------------------------------------------------------------------------------




--------------------------------------- Iteration      1(   6)  ---------------------------------------


    POTLOK:  cpu time    0.4879: real time    0.4879
    SETDIJ:  cpu time    0.2011: real time    0.2018
    TRIAL :  cpu time  119.0444: real time  140.3964
    CORREC:  cpu time    0.0007: real time    0.0008
    CHARGE:  cpu time    0.3090: real time    0.3194
    --------------------------------------------
      LOOP:  cpu time  120.0458: real time  141.4091

 eigenvalue-minimisations  :     0
 total energy-change (2. order) :-0.4440267E+04  (-0.4991849E+03)
 number of electron    1728.0000754 magnetization       0.0000001
 augmentation part      767.2353502 magnetization       0.6838420

 Free energy of the ion-electron system (eV)
  ---------------------------------------------------
  alpha Z        PSCENC =      6923.22574738
  Ewald energy   TEWEN  =   -126595.94951108
  -Hartree energ DENC   =    -68907.83605817
  -exchange      EXHF   =      4486.79847258
  -V(xc)+E(xc)   XCENC  =      4788.84003830
  PAW double counting   =    147703.89852206  -173730.63707473
  entropy T*S    EENTRO =        -0.00000000
  eigenvalues    EBANDS =    -20448.87440514
  atomic energy  EATOM  =    225025.12006734
  ---------------------------------------------------
  free energy    TOTEN  =      -755.41632113 eV

  energy without entropy =     -755.41632113  energy(sigma->0) =     -755.41632113
  exchange ACFDT corr.  =        -0.00103124  see jH, gK, PRB 81, 115126


--------------------------------------------------------------------------------------------------------




--------------------------------------- Iteration      1(   7)  ---------------------------------------


    POTLOK:  cpu time    0.5342: real time    0.5353
    SETDIJ:  cpu time    0.2023: real time    0.2025
    TRIAL :  cpu time  129.9720: real time  143.1689
    CORREC:  cpu time    0.0006: real time    0.0007
    CHARGE:  cpu time    0.3074: real time    0.3175
    --------------------------------------------
      LOOP:  cpu time  131.0235: real time  144.2373

 eigenvalue-minimisations  :     0
 total energy-change (2. order) :-0.2068657E+03  (-0.1848476E+03)
 number of electron    1728.0000746 magnetization       0.0000000
 augmentation part      756.9716287 magnetization       0.0976315

 Free energy of the ion-electron system (eV)
  ---------------------------------------------------
  alpha Z        PSCENC =      6923.22574738
  Ewald energy   TEWEN  =   -126595.94951108
  -Hartree energ DENC   =    -72735.95938403
  -exchange      EXHF   =      4598.39461986
  -V(xc)+E(xc)   XCENC  =      4904.35574225
  PAW double counting   =    153150.49547908  -181246.96811972
  entropy T*S    EENTRO =        -0.00000000
  eigenvalues    EBANDS =    -14984.99667518
  atomic energy  EATOM  =    225025.12006734
  ---------------------------------------------------
  free energy    TOTEN  =      -962.28203409 eV

  energy without entropy =     -962.28203409  energy(sigma->0) =     -962.28203409
  exchange ACFDT corr.  =        -0.00000000  see jH, gK, PRB 81, 115126


--------------------------------------------------------------------------------------------------------




--------------------------------------- Iteration      1(   8)  ---------------------------------------


    POTLOK:  cpu time    0.5320: real time    0.5320
    SETDIJ:  cpu time    0.2023: real time    0.2024
    TRIAL :  cpu time  131.9140: real time  143.4786
    CORREC:  cpu time    0.0006: real time    0.0008
    CHARGE:  cpu time    0.3020: real time    0.3194
    --------------------------------------------
      LOOP:  cpu time  132.9524: real time  144.5407

 eigenvalue-minimisations  :     0
 total energy-change (2. order) :-0.1185916E+03  (-0.5761755E+02)
 number of electron    1728.0000738 magnetization       0.0000000
 augmentation part      748.5369117 magnetization       0.2301382

 Free energy of the ion-electron system (eV)
  ---------------------------------------------------
  alpha Z        PSCENC =      6923.22574738
  Ewald energy   TEWEN  =   -126595.94951108
  -Hartree energ DENC   =    -72044.11736523
  -exchange      EXHF   =      4592.22077098
  -V(xc)+E(xc)   XCENC  =      4879.35544826
  PAW double counting   =    152837.29051051  -180116.64507095
  entropy T*S    EENTRO =        -0.00000000
  eigenvalues    EBANDS =    -16581.37425293
  atomic energy  EATOM  =    225025.12006734
  ---------------------------------------------------
  free energy    TOTEN  =     -1080.87365572 eV

  energy without entropy =    -1080.87365572  energy(sigma->0) =    -1080.87365572
  exchange ACFDT corr.  =        -0.00000000  see jH, gK, PRB 81, 115126


--------------------------------------------------------------------------------------------------------




--------------------------------------- Iteration      1(   9)  ---------------------------------------


    POTLOK:  cpu time    0.5332: real time    0.5332
    SETDIJ:  cpu time    0.2017: real time    0.2019
    TRIAL :  cpu time  131.9788: real time  143.6040
    CORREC:  cpu time    0.0006: real time    0.0007
    CHARGE:  cpu time    0.3051: real time    0.3176
    --------------------------------------------
      LOOP:  cpu time  133.0212: real time  144.6649

 eigenvalue-minimisations  :     0
 total energy-change (2. order) :-0.2007664E+02  (-0.4170193E+02)
 number of electron    1728.0000743 magnetization       0.0000000
 augmentation part      754.5887724 magnetization       0.3301612

 Free energy of the ion-electron system (eV)
  ---------------------------------------------------
  alpha Z        PSCENC =      6923.22574738
  Ewald energy   TEWEN  =   -126595.94951108
  -Hartree energ DENC   =    -71235.56013698
  -exchange      EXHF   =      4575.59519905
  -V(xc)+E(xc)   XCENC  =      4852.01801945
  PAW double counting   =    152115.01559992  -178830.09548127
  entropy T*S    EENTRO =        -0.00000000
  eigenvalues    EBANDS =    -17930.31980008
  atomic energy  EATOM  =    225025.12006734
  ---------------------------------------------------
  free energy    TOTEN  =     -1100.95029626 eV

  energy without entropy =    -1100.95029626  energy(sigma->0) =    -1100.95029626
  exchange ACFDT corr.  =         0.00000000  see jH, gK, PRB 81, 115126


--------------------------------------------------------------------------------------------------------




--------------------------------------- Iteration      1(  10)  ---------------------------------------


    POTLOK:  cpu time    0.5307: real time    0.5307
    SETDIJ:  cpu time    0.2005: real time    0.2008
    TRIAL :  cpu time  132.2204: real time  143.7482
    CORREC:  cpu time    0.0006: real time    0.0008
    CHARGE:  cpu time    0.3085: real time    0.3179
    --------------------------------------------
      LOOP:  cpu time  133.2626: real time  144.8146

 eigenvalue-minimisations  :     0
 total energy-change (2. order) :-0.2296825E+02  (-0.8737483E+01)
 number of electron    1728.0000744 magnetization       0.0000000
 augmentation part      755.4413942 magnetization       0.2841432

 Free energy of the ion-electron system (eV)
  ---------------------------------------------------
  alpha Z        PSCENC =      6923.22574738
  Ewald energy   TEWEN  =   -126595.94951108
  -Hartree energ DENC   =    -72142.84786912
  -exchange      EXHF   =      4599.60067141
  -V(xc)+E(xc)   XCENC  =      4879.41176748
  PAW double counting   =    153291.86364224  -180512.32133962
  entropy T*S    EENTRO =        -0.00000000
  eigenvalues    EBANDS =    -16592.02172088
  atomic energy  EATOM  =    225025.12006734
  ---------------------------------------------------
  free energy    TOTEN  =     -1123.91854484 eV

  energy without entropy =    -1123.91854484  energy(sigma->0) =    -1123.91854484
  exchange ACFDT corr.  =         0.00000000  see jH, gK, PRB 81, 115126


--------------------------------------------------------------------------------------------------------




--------------------------------------- Iteration      1(  11)  ---------------------------------------


    POTLOK:  cpu time    0.5358: real time    0.5358
    SETDIJ:  cpu time    0.2011: real time    0.2014
    TRIAL :  cpu time  132.7651: real time  144.2116
    CORREC:  cpu time    0.0007: real time    0.0008
    CHARGE:  cpu time    0.3116: real time    0.3193
    --------------------------------------------
      LOOP:  cpu time  133.8168: real time  145.2758

 eigenvalue-minimisations  :     0
 total energy-change (2. order) :-0.6092427E+01  (-0.7631267E+01)
 number of electron    1728.0000742 magnetization       0.0000000
 augmentation part      752.7741407 magnetization       0.1805891

 Free energy of the ion-electron system (eV)
  ---------------------------------------------------
  alpha Z        PSCENC =      6923.22574738
  Ewald energy   TEWEN  =   -126595.94951108
  -Hartree energ DENC   =    -72261.67081030
  -exchange      EXHF   =      4603.98309939
  -V(xc)+E(xc)   XCENC  =      4883.19585522
  PAW double counting   =    153423.58910880  -180690.53632392
  entropy T*S    EENTRO =        -0.00000000
  eigenvalues    EBANDS =    -16440.96820503
  atomic energy  EATOM  =    225025.12006734
  ---------------------------------------------------
  free energy    TOTEN  =     -1130.01097220 eV

  energy without entropy =    -1130.01097220  energy(sigma->0) =    -1130.01097220
  exchange ACFDT corr.  =        -0.00000000  see jH, gK, PRB 81, 115126


--------------------------------------------------------------------------------------------------------




--------------------------------------- Iteration      1(  12)  ---------------------------------------


    POTLOK:  cpu time    0.5305: real time    0.5305
    SETDIJ:  cpu time    0.2019: real time    0.2020
    TRIAL :  cpu time  132.3462: real time  143.7111
    CORREC:  cpu time    0.0006: real time    0.0008
    CHARGE:  cpu time    0.2894: real time    0.3158
    --------------------------------------------
      LOOP:  cpu time  133.3708: real time  144.7675

 eigenvalue-minimisations  :     0
 total energy-change (2. order) :-0.3430740E+01  (-0.2735371E+01)
 number of electron    1728.0000743 magnetization       0.0000000
 augmentation part      754.0148296 magnetization       0.1031556

 Free energy of the ion-electron system (eV)
  ---------------------------------------------------
  alpha Z        PSCENC =      6923.22574738
  Ewald energy   TEWEN  =   -126595.94951108
  -Hartree energ DENC   =    -71901.47851822
  -exchange      EXHF   =      4596.19346585
  -V(xc)+E(xc)   XCENC  =      4872.14103781
  PAW double counting   =    152968.87323465  -180018.36104609
  entropy T*S    EENTRO =        -0.00000000
  eigenvalues    EBANDS =    -17003.20619027
  atomic energy  EATOM  =    225025.12006734
  ---------------------------------------------------
  free energy    TOTEN  =     -1133.44171262 eV

  energy without entropy =    -1133.44171262  energy(sigma->0) =    -1133.44171262
  exchange ACFDT corr.  =        -0.00000000  see jH, gK, PRB 81, 115126


--------------------------------------------------------------------------------------------------------




--------------------------------------- Iteration      1(  13)  ---------------------------------------


    POTLOK:  cpu time    0.5330: real time    0.5330
    SETDIJ:  cpu time    0.2021: real time    0.2023
    TRIAL :  cpu time  131.9865: real time  143.6352
    CORREC:  cpu time    0.0006: real time    0.0008
    CHARGE:  cpu time    0.3131: real time    0.3213
    --------------------------------------------
      LOOP:  cpu time  133.0375: real time  144.6993

 eigenvalue-minimisations  :     0
 total energy-change (2. order) :-0.1811133E+01  (-0.7772572E+00)
 number of electron    1728.0000744 magnetization       0.0000000
 augmentation part      754.6013266 magnetization       0.0752787

 Free energy of the ion-electron system (eV)
  ---------------------------------------------------
  alpha Z        PSCENC =      6923.22574738
  Ewald energy   TEWEN  =   -126595.94951108
  -Hartree energ DENC   =    -72078.93202543
  -exchange      EXHF   =      4601.20579912
  -V(xc)+E(xc)   XCENC  =      4877.63535088
  PAW double counting   =    153189.97829611  -180339.49482241
  entropy T*S    EENTRO =        -0.00000000
  eigenvalues    EBANDS =    -16738.04174744
  atomic energy  EATOM  =    225025.12006734
  ---------------------------------------------------
  free energy    TOTEN  =     -1135.25284552 eV

  energy without entropy =    -1135.25284552  energy(sigma->0) =    -1135.25284552
  exchange ACFDT corr.  =         0.00000000  see jH, gK, PRB 81, 115126


--------------------------------------------------------------------------------------------------------




--------------------------------------- Iteration      1(  14)  ---------------------------------------


    POTLOK:  cpu time    0.5304: real time    0.5304
    SETDIJ:  cpu time    0.2020: real time    0.2022
    TRIAL :  cpu time  131.8257: real time  143.3542
    CORREC:  cpu time    0.0006: real time    0.0008
    CHARGE:  cpu time    0.3077: real time    0.3148
    --------------------------------------------
      LOOP:  cpu time  132.8679: real time  144.4128

 eigenvalue-minimisations  :     0
 total energy-change (2. order) :-0.4867036E+00  (-0.6097881E+00)
 number of electron    1728.0000743 magnetization       0.0000000
 augmentation part      753.9426294 magnetization       0.0719955

 Free energy of the ion-electron system (eV)
  ---------------------------------------------------
  alpha Z        PSCENC =      6923.22574738
  Ewald energy   TEWEN  =   -126595.94951108
  -Hartree energ DENC   =    -72167.81489808
  -exchange      EXHF   =      4603.75353332
  -V(xc)+E(xc)   XCENC  =      4880.31164468
  PAW double counting   =    153312.73014566  -180507.34902610
  entropy T*S    EENTRO =        -0.00000000
  eigenvalues    EBANDS =    -16609.76725221
  atomic energy  EATOM  =    225025.12006734
  ---------------------------------------------------
  free energy    TOTEN  =     -1135.73954910 eV

  energy without entropy =    -1135.73954910  energy(sigma->0) =    -1135.73954910
  exchange ACFDT corr.  =         0.00000000  see jH, gK, PRB 81, 115126


--------------------------------------------------------------------------------------------------------




--------------------------------------- Iteration      1(  15)  ---------------------------------------


    POTLOK:  cpu time    0.5312: real time    0.5315
    SETDIJ:  cpu time    0.2019: real time    0.2021
    TRIAL :  cpu time  132.0848: real time  143.5562
    CORREC:  cpu time    0.0006: real time    0.0008
    CHARGE:  cpu time    0.3088: real time    0.3160
    --------------------------------------------
      LOOP:  cpu time  133.1294: real time  144.6131

 eigenvalue-minimisations  :     0
 total energy-change (2. order) :-0.3600628E+00  (-0.1688237E+00)
 number of electron    1728.0000743 magnetization       0.0000000
 augmentation part      753.9917975 magnetization       0.0479117

 Free energy of the ion-electron system (eV)
  ---------------------------------------------------
  alpha Z        PSCENC =      6923.22574738
  Ewald energy   TEWEN  =   -126595.94951108
  -Hartree energ DENC   =    -72084.84542662
  -exchange      EXHF   =      4601.89927484
  -V(xc)+E(xc)   XCENC  =      4877.65157270
  PAW double counting   =    153225.32236774  -180364.16837169
  entropy T*S    EENTRO =        -0.00000000
  eigenvalues    EBANDS =    -16744.35533247
  atomic energy  EATOM  =    225025.12006734
  ---------------------------------------------------
  free energy    TOTEN  =     -1136.09961185 eV

  energy without entropy =    -1136.09961185  energy(sigma->0) =    -1136.09961185
  exchange ACFDT corr.  =        -0.00000000  see jH, gK, PRB 81, 115126


--------------------------------------------------------------------------------------------------------




--------------------------------------- Iteration      1(  16)  ---------------------------------------


    POTLOK:  cpu time    0.5299: real time    0.5299
    SETDIJ:  cpu time    0.2006: real time    0.2008
    TRIAL :  cpu time  131.7164: real time  143.3216
    CORREC:  cpu time    0.0006: real time    0.0008
    CHARGE:  cpu time    0.3106: real time    0.3192
    --------------------------------------------
      LOOP:  cpu time  132.7609: real time  144.3796

 eigenvalue-minimisations  :     0
 total energy-change (2. order) :-0.1342948E+00  (-0.9728304E-01)
 number of electron    1728.0000743 magnetization       0.0000000
 augmentation part      754.2153541 magnetization       0.0312932

 Free energy of the ion-electron system (eV)
  ---------------------------------------------------
  alpha Z        PSCENC =      6923.22574738
  Ewald energy   TEWEN  =   -126595.94951108
  -Hartree energ DENC   =    -72096.05689140
  -exchange      EXHF   =      4602.25128735
  -V(xc)+E(xc)   XCENC  =      4877.93396507
  PAW double counting   =    153248.83554112  -180391.80304446
  entropy T*S    EENTRO =        -0.00000000
  eigenvalues    EBANDS =    -16729.79106798
  atomic energy  EATOM  =    225025.12006734
  ---------------------------------------------------
  free energy    TOTEN  =     -1136.23390666 eV

[...]
     15.03699     13.63616     11.51507        -0.000078      0.210835      0.208987
     12.28031      0.16881      9.58061        -0.301009     -0.000003      0.003192
     15.05964      2.11898     11.49673         0.300956      0.003392     -0.000152
     12.30300     15.54904     13.39454        -0.000250     -0.218031     -0.215933
     12.30300     11.55094      1.93443        -0.000318      0.212665      0.216228
     15.01415     13.41471      0.00000        -0.303210     -0.011694      0.000921
     12.32567     11.73487     13.41287         0.301508      0.000024     -0.007476
     15.03697      9.83355     15.31065         0.000148     -0.211176     -0.214361
     15.03699      5.83542      3.85057        -0.000145      0.210961      0.209046
     12.28031      7.69944      1.91612        -0.301084     -0.000032      0.003139
     15.05966      9.64962      3.83223         0.300838      0.003334     -0.000006
     12.30298      7.74830      5.73004        -0.000008     -0.218464     -0.216046
 -----------------------------------------------------------------------------------
    total drift:                               -0.001759      0.000601     -0.007635


--------------------------------------------------------------------------------------------------------



  FREE ENERGIE OF THE ION-ELECTRON SYSTEM (eV)
  ---------------------------------------------------
  free  energy   TOTEN  =     -1136.34571914 eV

  energy  without entropy=    -1136.34571914  energy(sigma->0) =    -1136.34571914
 


--------------------------------------------------------------------------------------------------------


    POTLOK:  cpu time    0.7057: real time    0.7060


--------------------------------------------------------------------------------------------------------


 writing wavefunctions
     LOOP+:  cpu time 3715.0369: real time 4040.4313
    4ORBIT:  cpu time    0.0000: real time    0.0000
 


 total charge     
 
# of ion       s       p       d       tot
------------------------------------------
    1        0.540   0.550   9.791  10.881
    2        0.540   0.550   9.791  10.881
    3        0.540   0.550   9.791  10.881
    4        0.540   0.550   9.791  10.881
    5        0.540   0.550   9.791  10.881
    6        0.540   0.550   9.791  10.881
    7        0.540   0.550   9.791  10.881
    8        0.540   0.550   9.791  10.881
    9        0.540   0.550   9.791  10.881
   10        0.540   0.550   9.791  10.881
   11        0.540   0.550   9.791  10.881
   12        0.540   0.550   9.791  10.881
   13        0.540   0.550   9.791  10.881
   14        0.540   0.550   9.791  10.881
   15        0.540   0.550   9.791  10.881
   16        0.540   0.550   9.791  10.881
   17        0.540   0.550   9.791  10.881
   18        0.540   0.550   9.791  10.881
   19        0.540   0.550   9.791  10.881
   20        0.540   0.550   9.791  10.881
   21        0.540   0.550   9.791  10.881
   22        0.540   0.550   9.791  10.881
   23        0.540   0.550   9.791  10.881
   24        0.540   0.550   9.791  10.881
   25        0.540   0.550   9.791  10.881
   26        0.540   0.550   9.791  10.881
   27        0.540   0.550   9.791  10.881
   28        0.540   0.550   9.791  10.881
   29        0.540   0.550   9.791  10.881
   30        0.540   0.550   9.791  10.881
   31        0.540   0.550   9.791  10.881
   32        0.540   0.550   9.791  10.881
   33        0.540   0.550   9.791  10.881
   34        0.540   0.550   9.791  10.881
   35        0.540   0.550   9.791  10.881
   36        0.540   0.550   9.791  10.881
   37        0.540   0.550   9.791  10.881
   38        0.540   0.550   9.791  10.881
   39        0.540   0.550   9.791  10.881
   40        0.540   0.550   9.791  10.881
   41        0.540   0.550   9.791  10.881
   42        0.540   0.550   9.791  10.881
   43        0.540   0.550   9.791  10.881
   44        0.540   0.550   9.791  10.881
   45        0.540   0.550   9.791  10.881
   46        0.540   0.550   9.791  10.881
   47        0.540   0.550   9.791  10.881
   48        0.540   0.550   9.791  10.881
   49        1.092   1.249  10.072  12.413
   50        1.092   1.249  10.072  12.413
   51        1.092   1.249  10.072  12.413
   52        1.092   1.249  10.072  12.413
   53        1.092   1.249  10.072  12.413
   54        1.092   1.249  10.072  12.413
   55        1.092   1.249  10.072  12.413
   56        1.092   1.249  10.072  12.413
   57        1.092   1.249  10.072  12.413
   58        1.092   1.249  10.072  12.413
   59        1.092   1.249  10.072  12.413
   60        1.092   1.249  10.072  12.413
   61        1.092   1.249  10.072  12.413
   62        1.092   1.249  10.072  12.413
   63        1.092   1.249  10.072  12.413
   64        1.092   1.249  10.072  12.413
   65        1.092   1.249  10.072  12.413
   66        1.092   1.249  10.072  12.413
   67        1.092   1.249  10.072  12.413
   68        1.092   1.249  10.072  12.413
   69        1.092   1.249  10.072  12.413
   70        1.092   1.249  10.072  12.413
   71        1.092   1.249  10.072  12.413
   72        1.092   1.249  10.072  12.413
   73        1.092   1.249  10.072  12.413
   74        1.092   1.249  10.072  12.413
   75        1.092   1.249  10.072  12.413
   76        1.092   1.249  10.072  12.413
   77        1.092   1.249  10.072  12.413
   78        1.092   1.249  10.072  12.413
   79        1.092   1.249  10.072  12.413
   80        1.092   1.249  10.072  12.413
   81        1.092   1.249  10.072  12.413
   82        1.092   1.249  10.072  12.413
   83        1.092   1.249  10.072  12.413
   84        1.092   1.249  10.072  12.413
   85        1.092   1.249  10.072  12.413
   86        1.092   1.249  10.072  12.413
   87        1.092   1.249  10.072  12.413
   88        1.092   1.249  10.072  12.413
   89        1.092   1.249  10.072  12.413
   90        1.092   1.249  10.072  12.413
   91        1.092   1.249  10.072  12.413
   92        1.092   1.249  10.072  12.413
   93        1.092   1.249  10.072  12.413
   94        1.092   1.249  10.072  12.413
   95        1.092   1.249  10.072  12.413
   96        1.092   1.249  10.072  12.413
   97        1.021   1.518   0.000   2.539
   98        1.021   1.518   0.000   2.539
   99        1.021   1.518   0.000   2.539
  100        1.021   1.518   0.000   2.539
  101        1.021   1.518   0.000   2.539
  102        1.021   1.518   0.000   2.539
  103        1.021   1.518   0.000   2.539
  104        1.021   1.518   0.000   2.539
  105        1.021   1.518   0.000   2.539
  106        1.021   1.518   0.000   2.539
  107        1.021   1.518   0.000   2.539
  108        1.021   1.518   0.000   2.539
  109        1.021   1.518   0.000   2.539
  110        1.021   1.518   0.000   2.539
  111        1.021   1.518   0.000   2.539
  112        1.021   1.518   0.000   2.539
  113        1.021   1.518   0.000   2.539
  114        1.021   1.518   0.000   2.539
  115        1.021   1.518   0.000   2.539
  116        1.021   1.518   0.000   2.539
  117        1.021   1.518   0.000   2.539
  118        1.021   1.518   0.000   2.539
  119        1.021   1.518   0.000   2.539
  120        1.021   1.518   0.000   2.539
  121        1.021   1.518   0.000   2.539
  122        1.021   1.518   0.000   2.539
  123        1.021   1.518   0.000   2.539
  124        1.021   1.518   0.000   2.539
  125        1.021   1.518   0.000   2.539
  126        1.021   1.518   0.000   2.539
  127        1.021   1.518   0.000   2.539
  128        1.021   1.518   0.000   2.539
  129        1.021   1.518   0.000   2.539
  130        1.021   1.518   0.000   2.539
  131        1.021   1.518   0.000   2.539
  132        1.021   1.518   0.000   2.539
  133        1.021   1.518   0.000   2.539
  134        1.021   1.518   0.000   2.539
  135        1.021   1.518   0.000   2.539
  136        1.021   1.518   0.000   2.539
  137        1.021   1.518   0.000   2.539
  138        1.021   1.518   0.000   2.539
  139        1.021   1.518   0.000   2.539
  140        1.021   1.518   0.000   2.539
  141        1.021   1.518   0.000   2.539
  142        1.021   1.518   0.000   2.539
  143        1.021   1.518   0.000   2.539
  144        1.021   1.518   0.000   2.539
  145        1.021   1.518   0.000   2.539
  146        1.021   1.518   0.000   2.539
  147        1.021   1.518   0.000   2.539
  148        1.021   1.518   0.000   2.539
  149        1.021   1.518   0.000   2.539
  150        1.021   1.518   0.000   2.539
  151        1.021   1.518   0.000   2.539
  152        1.021   1.518   0.000   2.539
  153        1.021   1.518   0.000   2.539
  154        1.021   1.518   0.000   2.539
  155        1.021   1.518   0.000   2.539
  156        1.021   1.518   0.000   2.539
  157        1.021   1.518   0.000   2.539
  158        1.021   1.518   0.000   2.539
  159        1.021   1.518   0.000   2.539
  160        1.021   1.518   0.000   2.539
  161        1.021   1.518   0.000   2.539
  162        1.021   1.518   0.000   2.539
  163        1.021   1.518   0.000   2.539
  164        1.021   1.518   0.000   2.539
  165        1.021   1.518   0.000   2.539
  166        1.021   1.518   0.000   2.539
  167        1.021   1.518   0.000   2.539
  168        1.021   1.518   0.000   2.539
  169        1.021   1.518   0.000   2.539
  170        1.021   1.518   0.000   2.539
  171        1.021   1.518   0.000   2.539
  172        1.021   1.518   0.000   2.539
  173        1.021   1.518   0.000   2.539
  174        1.021   1.518   0.000   2.539
  175        1.021   1.518   0.000   2.539
  176        1.021   1.518   0.000   2.539
  177        1.021   1.518   0.000   2.539
  178        1.021   1.518   0.000   2.539
  179        1.021   1.518   0.000   2.539
  180        1.021   1.518   0.000   2.539
  181        1.021   1.518   0.000   2.539
  182        1.021   1.518   0.000   2.539
  183        1.021   1.518   0.000   2.539
  184        1.021   1.518   0.000   2.539
  185        1.021   1.518   0.000   2.539
  186        1.021   1.518   0.000   2.539
  187        1.021   1.518   0.000   2.539
  188        1.021   1.518   0.000   2.539
  189        1.021   1.518   0.000   2.539
  190        1.021   1.518   0.000   2.539
  191        1.021   1.518   0.000   2.539
  192        1.021   1.518   0.000   2.539
--------------------------------------------------
tot        176.311 232.118 953.4431361.873
 


 magnetization (x)
 
# of ion       s       p       d       tot
------------------------------------------
    1       -0.000  -0.000   0.000  -0.000
    2       -0.000  -0.000   0.000  -0.000
    3       -0.000  -0.000   0.000  -0.000
    4       -0.000  -0.000   0.000  -0.000
    5       -0.000  -0.000   0.000  -0.000
    6       -0.000  -0.000   0.000  -0.000
    7       -0.000  -0.000   0.000  -0.000
    8       -0.000  -0.000   0.000  -0.000
    9       -0.000  -0.000   0.000  -0.000
   10       -0.000  -0.000   0.000  -0.000
   11       -0.000  -0.000   0.000  -0.000
   12       -0.000  -0.000   0.000  -0.000
   13        0.000   0.000  -0.000   0.000
   14       -0.000  -0.000   0.000  -0.000
   15       -0.000  -0.000   0.000  -0.000
   16        0.000   0.000  -0.000   0.000
   17       -0.000  -0.000   0.000  -0.000
   18       -0.000  -0.000   0.000  -0.000
   19       -0.000  -0.000   0.000  -0.000
   20       -0.000  -0.000   0.000  -0.000
   21       -0.000  -0.000   0.000  -0.000
   22       -0.000  -0.000   0.000  -0.000
   23       -0.000  -0.000   0.000  -0.000
   24       -0.000  -0.000   0.000  -0.000
   25       -0.000  -0.000   0.000  -0.000
   26       -0.000  -0.000   0.000  -0.000
   27       -0.000  -0.000   0.000  -0.000
   28       -0.000  -0.000   0.000  -0.000
   29       -0.000  -0.000   0.000  -0.000
   30       -0.000  -0.000   0.000  -0.000
   31       -0.000  -0.000   0.000  -0.000
   32       -0.000  -0.000   0.000  -0.000
   33       -0.000  -0.000   0.000  -0.000
   34       -0.000  -0.000   0.000  -0.000
   35       -0.000  -0.000   0.000  -0.000
   36       -0.000  -0.000   0.000  -0.000
   37       -0.000  -0.000   0.000  -0.000
   38       -0.000  -0.000   0.000  -0.000
   39       -0.000  -0.000   0.000  -0.000
   40       -0.000  -0.000   0.000  -0.000
   41       -0.000  -0.000   0.000  -0.000
   42       -0.000  -0.000   0.000  -0.000
   43       -0.000  -0.000   0.000  -0.000
   44       -0.000  -0.000   0.000  -0.000
   45       -0.000  -0.000   0.000  -0.000
   46       -0.000  -0.000   0.000  -0.000
   47       -0.000  -0.000   0.000  -0.000
   48       -0.000  -0.000   0.000  -0.000
   49       -0.000  -0.000   0.000  -0.000
   50       -0.000  -0.000   0.000  -0.000
   51       -0.000  -0.000   0.000  -0.000
   52       -0.000  -0.000   0.000  -0.000
   53       -0.000  -0.000   0.000  -0.000
   54       -0.000  -0.000   0.000  -0.000
   55       -0.000  -0.000   0.000  -0.000
   56       -0.000  -0.000   0.000  -0.000
   57       -0.000  -0.000   0.000  -0.000
   58       -0.000  -0.000   0.000  -0.000
   59       -0.000  -0.000   0.000  -0.000
   60       -0.000  -0.000   0.000  -0.000
   61       -0.000  -0.000   0.000  -0.000
   62       -0.000  -0.000   0.000  -0.000
   63       -0.000  -0.000   0.000  -0.000
   64       -0.000  -0.000   0.000  -0.000
   65       -0.000  -0.000   0.000  -0.000
   66       -0.000  -0.000   0.000  -0.000
   67       -0.000  -0.000   0.000  -0.000
   68       -0.000  -0.000   0.000  -0.000
   69       -0.000  -0.000   0.000  -0.000
   70       -0.000  -0.000   0.000  -0.000
   71       -0.000  -0.000   0.000  -0.000
   72       -0.000  -0.000   0.000  -0.000
   73       -0.000  -0.000   0.000  -0.000
   74       -0.000  -0.000   0.000  -0.000
   75       -0.000  -0.000   0.000  -0.000
   76       -0.000  -0.000   0.000  -0.000
   77       -0.000  -0.000   0.000  -0.000
   78       -0.000  -0.000   0.000  -0.000
   79       -0.000  -0.000   0.000  -0.000
   80        0.000  -0.000  -0.000  -0.000
   81       -0.000  -0.000   0.000  -0.000
   82       -0.000  -0.000   0.000  -0.000
   83       -0.000  -0.000   0.000  -0.000
   84       -0.000  -0.000   0.000  -0.000
   85       -0.000  -0.000   0.000  -0.000
   86       -0.000  -0.000   0.000  -0.000
   87       -0.000  -0.000   0.000  -0.000
   88       -0.000  -0.000   0.000  -0.000
   89       -0.000  -0.000   0.000  -0.000
   90       -0.000  -0.000   0.000  -0.000
   91       -0.000  -0.000   0.000  -0.000
   92       -0.000  -0.000   0.000  -0.000
   93       -0.000  -0.000   0.000  -0.000
   94       -0.000  -0.000   0.000  -0.000
   95       -0.000  -0.000   0.000  -0.000
   96       -0.000  -0.000   0.000  -0.000
   97        0.000   0.000   0.000   0.000
   98        0.000   0.000   0.000   0.000
   99        0.000   0.000   0.000   0.000
  100        0.000   0.000   0.000   0.000
  101        0.000   0.000   0.000   0.000
  102        0.000   0.000   0.000   0.000
  103       -0.000   0.000   0.000   0.000
  104        0.000   0.000   0.000   0.000
  105        0.000   0.000   0.000   0.000
  106        0.000   0.000   0.000   0.000
  107        0.000   0.000   0.000   0.000
  108        0.000   0.000   0.000   0.000
  109        0.000   0.000   0.000   0.000
  110        0.000   0.000   0.000   0.000
  111        0.000  -0.000   0.000  -0.000
  112        0.000   0.000   0.000   0.000
  113        0.000   0.000   0.000   0.000
  114        0.000   0.000   0.000   0.000
  115        0.000   0.000   0.000   0.000
  116        0.000   0.000   0.000   0.000
  117        0.000   0.000   0.000   0.000
  118        0.000   0.000   0.000   0.000
  119        0.000   0.000   0.000   0.000
  120        0.000   0.000   0.000   0.000
  121       -0.000  -0.000   0.000  -0.000
  122        0.000   0.000   0.000   0.000
  123        0.000   0.000   0.000   0.000
  124       -0.000  -0.000   0.000  -0.000
  125        0.000   0.000   0.000   0.000
  126        0.000   0.000   0.000   0.000
  127        0.000   0.000   0.000   0.000
  128       -0.000  -0.000   0.000  -0.000
  129        0.000   0.000   0.000   0.000
  130        0.000   0.000   0.000   0.000
  131        0.000   0.000   0.000   0.000
  132        0.000   0.000   0.000   0.000
  133        0.000   0.000   0.000   0.000
  134        0.000   0.000   0.000   0.000
  135        0.000   0.000   0.000   0.000
  136        0.000   0.000   0.000   0.000
  137        0.000   0.000   0.000   0.000
  138        0.000   0.000   0.000   0.000
  139        0.000   0.000   0.000   0.000
  140        0.000   0.000   0.000   0.000
  141       -0.000  -0.000   0.000  -0.000
  142        0.000   0.000   0.000   0.000
  143        0.000   0.000   0.000   0.000
  144        0.000   0.000   0.000   0.000
  145        0.000   0.000   0.000   0.000
  146        0.000   0.000   0.000   0.000
  147        0.000  -0.000   0.000  -0.000
  148        0.000   0.000   0.000   0.000
  149        0.000   0.000   0.000   0.000
  150        0.000   0.000   0.000   0.000
  151        0.000   0.000   0.000   0.000
  152        0.000   0.000   0.000   0.000
  153        0.000   0.000   0.000   0.000
  154       -0.000   0.000   0.000   0.000
  155        0.000   0.000   0.000   0.000
  156        0.000   0.000   0.000   0.000
  157        0.000   0.000   0.000   0.000
  158       -0.000  -0.000   0.000  -0.000
  159        0.000   0.000   0.000   0.000
  160        0.000   0.000   0.000   0.000
  161        0.000   0.000   0.000   0.000
  162       -0.000  -0.000   0.000  -0.000
  163        0.000   0.000   0.000   0.000
  164        0.000   0.000   0.000   0.000
  165        0.000   0.000   0.000   0.000
  166        0.000   0.000   0.000   0.000
  167        0.000   0.000   0.000   0.000
  168        0.000   0.000   0.000   0.000
  169        0.000   0.000   0.000   0.000
  170        0.000   0.000   0.000   0.000
  171        0.000   0.000   0.000   0.000
  172        0.000   0.000   0.000   0.000
  173        0.000   0.000   0.000   0.000
  174        0.000   0.000   0.000   0.000
  175        0.000   0.000   0.000   0.000
  176        0.000   0.000   0.000   0.000
  177        0.000   0.000   0.000   0.000
  178        0.000   0.000   0.000   0.000
  179        0.000   0.000   0.000   0.000
  180        0.000   0.000   0.000   0.000
  181        0.000   0.000   0.000   0.000
  182        0.000   0.000   0.000   0.000
  183        0.000   0.000   0.000   0.000
  184        0.000   0.000   0.000   0.000
  185       -0.000  -0.000   0.000  -0.000
  186        0.000  -0.000   0.000  -0.000
  187        0.000   0.000   0.000   0.000
  188       -0.000   0.000   0.000   0.000
  189        0.000   0.000   0.000   0.000
  190        0.000   0.000   0.000   0.000
  191        0.000   0.000   0.000   0.000
  192        0.000   0.000   0.000   0.000
--------------------------------------------------
tot         -0.002   0.001   0.001  -0.000
 

 total amount of memory used by VASP MPI-rank0    96915. kBytes
=======================================================================

   base      :      30000. kBytes
   nonl-proj :      13847. kBytes
   fftplans  :       5975. kBytes
   grid      :      17618. kBytes
   one-center:        373. kBytes
   HF        :        194. kBytes
   nonlr-proj:        882. kBytes
   wavefun   :      28026. kBytes
 
  
  
 General timing and accounting informations for this job:
 ========================================================
  
                  Total CPU time used (sec):     3762.183
                            User time (sec):     3686.995
                          System time (sec):       75.187
                         Elapsed time (sec):     4096.043
  
                   Maximum memory used (kb):      348776.
                   Average memory used (kb):           0.
  
                          Minor page faults:       997182
                          Major page faults:            9
                 Voluntary context switches:      3919176
