 running on  128 total cores
 distrk:  each k-point on  128 cores,    1 groups
 distr:  one band on    8 cores,   16 groups
 using from now: INCAR     
 vasp.5.4.4.18Apr17-6-g9f103f2a35 (build Mar 26 2021 15:05:33) gamma-only       
  
 POSCAR found type information on POSCAR  Zn Ge P 
 POSCAR found :  3 types and     192 ions
 scaLAPACK will be used

 ----------------------------------------------------------------------------- 
|                                                                             |
|  ADVICE TO THIS USER RUNNING 'VASP/VAMP'   (HEAR YOUR MASTER'S VOICE ...):  |
|                                                                             |
|      You have a (more or less) 'large supercell' and for larger cells       |
|      it might be more efficient to use real space projection operators      |
|      So try LREAL= Auto  in the INCAR   file.                               |
|      Mind: If you want to do a very accurate calculations keep the          |
|      reciprocal projection scheme          (i.e. LREAL=.FALSE.)             |
|                                                                             |
 ----------------------------------------------------------------------------- 

 LDA part: xc-table for Pade appr. of Perdew
 POSCAR, INCAR and KPOINTS ok, starting setup
 FFT: planning ...
 WAVECAR not read
 WARNING: chargedensity file is incomplete
 entering main loop
       N       E                     dE             d eps       ncg     rms          ort
DAV:   1     0.385796998066E+05    0.38580E+05   -0.42262E+05  1136   0.337E+03
DAV:   2     0.148145082218E+05   -0.23765E+05   -0.21920E+05  1136   0.727E+02
DAV:   3     0.682921089087E+04   -0.79853E+04   -0.73416E+04  1136   0.285E+02
DAV:   4     0.436365663997E+04   -0.24656E+04   -0.22920E+04  1136   0.172E+02
DAV:   5     0.368485041523E+04   -0.67881E+03   -0.64610E+03  1136   0.868E+01
 gam= 0.000 g(H,U,f)=  0.109E+04 0.160E+03 0.522E+00 ort(H,U,f) = 0.000E+00 0.000E+00 0.000E+00
SDA:   6    -0.755416321133E+03   -0.44403E+04   -0.49918E+03  1136   0.125E+04 0.000E+00
 gam= 0.382 g(H,U,f)=  0.510E+03 0.852E+01 0.155E-06 ort(H,U,f) =-0.146E+03-0.228E+01 0.147E-06
DMP:   7    -0.962282034092E+03   -0.20687E+03   -0.18485E+03  1136   0.519E+03-0.148E+03
 gam= 0.382 g(H,U,f)=  0.884E+02 0.108E+02 0.110E-20 ort(H,U,f) = 0.106E+03 0.119E+02 0.780E-22
DMP:   8    -0.108087365572E+04   -0.11859E+03   -0.57618E+02  1136   0.992E+02 0.117E+03
 gam= 0.382 g(H,U,f)=  0.109E+03 0.159E+02 0.105E-18 ort(H,U,f) =-0.707E+02 0.158E+02 0.199E-18
DMP:   9    -0.110095029626E+04   -0.20077E+02   -0.41702E+02  1136   0.125E+03-0.549E+02
 gam= 0.382 g(H,U,f)=  0.144E+02 0.427E+01 0.115E-13 ort(H,U,f) =-0.143E+01 0.967E+01 0.292E-13
DMP:  10    -0.112391854484E+04   -0.22968E+02   -0.87375E+01  1136   0.187E+02 0.824E+01
 gam= 0.382 g(H,U,f)=  0.140E+02 0.228E+01 0.116E-18 ort(H,U,f) = 0.206E+01 0.518E+01 0.254E-18
DMP:  11    -0.113001097220E+04   -0.60924E+01   -0.76313E+01  1136   0.163E+02 0.724E+01
 gam= 0.382 g(H,U,f)=  0.628E+01 0.153E+01 0.163E-12 ort(H,U,f) =-0.601E+01 0.346E+01 0.477E-12
DMP:  12    -0.113344171262E+04   -0.34307E+01   -0.27354E+01  1136   0.781E+01-0.255E+01
 gam= 0.382 g(H,U,f)=  0.528E+00 0.630E+00 0.123E-16 ort(H,U,f) = 0.198E+00 0.186E+01 0.418E-16
DMP:  13    -0.113525284552E+04   -0.18111E+01   -0.77726E+00  1136   0.116E+01 0.206E+01
 gam= 0.382 g(H,U,f)=  0.105E+01 0.305E+00 0.639E-21 ort(H,U,f) =-0.453E+00 0.884E+00 0.243E-20
DMP:  14    -0.113573954910E+04   -0.48670E+00   -0.60979E+00  1136   0.136E+01 0.432E+00
 gam= 0.382 g(H,U,f)=  0.180E+00 0.145E+00 0.816E-16 ort(H,U,f) =-0.209E+00 0.462E+00 0.276E-15
DMP:  15    -0.113609961185E+04   -0.36006E+00   -0.16882E+00  1136   0.325E+00 0.253E+00
 gam= 0.382 g(H,U,f)=  0.859E-01 0.650E-01 0.313E-15 ort(H,U,f) = 0.212E-01 0.220E+00 0.124E-14
DMP:  16    -0.113623390666E+04   -0.13429E+00   -0.97283E-01  1136   0.151E+00 0.242E+00
 gam= 0.382 g(H,U,f)=  0.346E-01 0.283E-01 0.546E-21 ort(H,U,f) =-0.252E-01 0.958E-01 0.244E-20
DMP:  17    -0.113629724325E+04   -0.63337E-01   -0.35970E-01  1136   0.629E-01 0.706E-01
 gam= 0.382 g(H,U,f)=  0.102E-01 0.120E-01 0.314E-13 ort(H,U,f) = 0.759E-02 0.429E-01 0.147E-12
DMP:  18    -0.113632546409E+04   -0.28221E-01   -0.16599E-01  1136   0.222E-01 0.505E-01
 gam= 0.382 g(H,U,f)=  0.820E-02 0.504E-02 0.288E-20 ort(H,U,f) =-0.444E-02 0.183E-01 0.136E-19
DMP:  19    -0.113633655749E+04   -0.11093E-01   -0.74127E-02  1136   0.132E-01 0.139E-01
 gam= 0.382 g(H,U,f)=  0.807E-03 0.214E-02 0.172E-14 ort(H,U,f) = 0.104E-02 0.780E-02 0.940E-14
DMP:  20    -0.113634206819E+04   -0.55107E-02   -0.25311E-02  1136   0.295E-02 0.884E-02
 gam= 0.382 g(H,U,f)=  0.120E-02 0.100E-02 0.165E-23 ort(H,U,f) =-0.327E-03 0.336E-02 0.104E-22
DMP:  21    -0.113634395457E+04   -0.18864E-02   -0.13433E-02  1136   0.220E-02 0.303E-02
 gam= 0.382 g(H,U,f)=  0.159E-03 0.438E-03 0.821E-19 ort(H,U,f) = 0.314E-04 0.148E-02 0.509E-18
DMP:  22    -0.113634492261E+04   -0.96804E-03   -0.46992E-03  1136   0.597E-03 0.151E-02
 gam= 0.382 g(H,U,f)=  0.151E-03 0.216E-03 0.914E-16 ort(H,U,f) = 0.262E-04 0.676E-03 0.295E-15
DMP:  23    -0.113634529845E+04   -0.37583E-03   -0.25410E-03  1136   0.367E-03 0.702E-03
 gam= 0.382 g(H,U,f)=  0.303E-04 0.116E-03 0.319E-26 ort(H,U,f) = 0.273E-04 0.336E-03 0.129E-25
DMP:  24    -0.113634550131E+04   -0.20286E-03   -0.11386E-03  1136   0.146E-03 0.363E-03
 gam= 0.382 g(H,U,f)=  0.296E-04 0.660E-04 0.222E-22 ort(H,U,f) = 0.109E-04 0.179E-03 0.368E-22
DMP:  25    -0.113634559648E+04   -0.95166E-04   -0.67172E-04  1136   0.955E-04 0.190E-03
 gam= 0.382 g(H,U,f)=  0.775E-05 0.380E-04 0.358E-19 ort(H,U,f) = 0.916E-05 0.996E-04 0.662E-19
DMP:  26    -0.113634565091E+04   -0.54432E-04   -0.34910E-04  1136   0.457E-04 0.109E-03
 gam= 0.382 g(H,U,f)=  0.528E-05 0.231E-04 0.118E-16 ort(H,U,f) = 0.702E-05 0.583E-04 0.320E-16
DMP:  27    -0.113634568166E+04   -0.30753E-04   -0.21328E-04  1136   0.284E-04 0.653E-04
 gam= 0.382 g(H,U,f)=  0.219E-05 0.143E-04 0.829E-16 ort(H,U,f) = 0.424E-05 0.354E-04 0.217E-15
DMP:  28    -0.113634570074E+04   -0.19076E-04   -0.12629E-04  1136   0.164E-04 0.396E-04
 gam= 0.382 g(H,U,f)=  0.173E-05 0.890E-05 0.285E-25 ort(H,U,f) = 0.277E-05 0.218E-04 0.667E-25
DMP:  29    -0.113634571208E+04   -0.11346E-04   -0.80139E-05  1136   0.106E-04 0.246E-04
 gam= 0.382 g(H,U,f)=  0.878E-06 0.560E-05 0.357E-23 ort(H,U,f) = 0.189E-05 0.136E-04 0.912E-23
DMP:  30    -0.113634571914E+04   -0.70592E-05   -0.49616E-05  1136   0.648E-05 0.155E-04
 final diagonalization
   1 F= -.11363457E+04 E0= -.11363457E+04  d E =-.739343E-16  mag=     0.0000
 writing wavefunctions
