unknown system                          
           1
    16.404000    0.000000    0.000000
     0.000000   15.331377    0.000000
     0.000000    0.270104   15.328998
   Zn   Ge   P 
  48  48  96
Direct configuration=     1
   0.99999900  0.99988000  0.25012000
   0.00000000  0.00000000  0.00000000
   0.16666600  0.62487900  0.37512000
   0.16666600  0.87512000  0.37487900
   0.00000000  0.49988000  0.75011900
   0.00000000  0.50011900  0.49988000
   0.16666500  0.12487800  0.87512000
   0.16666500  0.37512000  0.87487900
   0.99999900  0.24988000  0.50011900
   0.99999900  0.25011800  0.24988000
   0.16666600  0.87487900  0.62512000
   0.16666600  0.12512000  0.62487900
   0.00000000  0.74987900  0.00011900
   0.00000000  0.75011900  0.74988000
   0.16666600  0.37487900  0.12512000
   0.16666600  0.62511900  0.12487900
   0.33333300  0.99988000  0.25011800
   0.33333200  0.00011900  0.99988000
   0.50000000  0.62487900  0.37512000
   0.50000000  0.87512000  0.37487900
   0.33333200  0.49988000  0.75011900
   0.33333200  0.50011900  0.49988000
   0.50000000  0.12487900  0.87512000
   0.50000000  0.37512000  0.87487900
   0.33333200  0.24988000  0.50011900
   0.33333300  0.25012000  0.24988000
   0.49999900  0.87487900  0.62512000
   0.49999900  0.12512000  0.62487900
   0.33333200  0.74988000  0.00011900
   0.33333200  0.75012000  0.74988000
   0.50000000  0.37487900  0.12512000
   0.49999900  0.62511900  0.12487900
   0.66666600  0.99988000  0.25011800
   0.66666600  0.00011900  0.99988000
   0.83333200  0.62487900  0.37512000
   0.83333200  0.87512000  0.37487900
   0.66666600  0.49988000  0.75011900
   0.66666600  0.50011900  0.49988000
   0.83333300  0.12487900  0.87512100
   0.83333200  0.37512000  0.87487900
   0.66666600  0.24988000  0.50011900
   0.66666600  0.25011800  0.24987900
   0.83333200  0.87487900  0.62512000
   0.83333300  0.12512000  0.62487900
   0.66666500  0.74988000  0.00011900
   0.66666500  0.75011900  0.74987900
   0.83333200  0.37487900  0.12512000
   0.83333200  0.62511900  0.12487900
   0.16666700  0.87510000  0.12489800
   0.16666600  0.12490000  0.12509900
   0.99999900  0.75010200  0.49989700
   0.00000000  0.74989700  0.25010200
   0.16666600  0.37510100  0.62489800
   0.16666600  0.62489800  0.62510200
   0.99999900  0.25009900  0.99989700
   0.00000000  0.24989700  0.75010200
   0.16666500  0.12510000  0.37489800
   0.16666600  0.37489800  0.37510200
   0.00000000  0.00010200  0.74989900
   0.00000000  0.99989700  0.50010200
   0.16666500  0.62510100  0.87489800
   0.16666500  0.87490000  0.87509900
   0.00000000  0.50010200  0.24989700
   0.99999900  0.49989700  0.00010200
   0.50000000  0.87510100  0.12489800
   0.50000000  0.12489700  0.12510100
   0.33333200  0.75010200  0.49989700
   0.33333300  0.74989700  0.25010200
   0.50000000  0.37510100  0.62489800
   0.49999900  0.62489800  0.62510100
   0.33333200  0.25010100  0.99989700
   0.33333200  0.24989700  0.75010200
   0.50000000  0.12510000  0.37489800
   0.50000000  0.37489800  0.37510100
   0.33333200  0.00010200  0.74989700
   0.33333300  0.99989700  0.50010200
   0.49999900  0.62510100  0.87489800
   0.49999900  0.87489700  0.87510200
   0.33333300  0.50010200  0.24989700
   0.33333200  0.49989700  0.00010200
   0.83333100  0.87510100  0.12489900
   0.83333300  0.12490000  0.12509800
   0.66666500  0.75010200  0.49989700
   0.66666500  0.74989700  0.25010200
   0.83333200  0.37510100  0.62489800
   0.83333200  0.62489700  0.62510100
   0.66666600  0.25010100  0.99989700
   0.66666600  0.24989700  0.75010200
   0.83333300  0.12510000  0.37489800
   0.83333200  0.37489700  0.37510100
   0.66666600  0.00010200  0.74989700
   0.66666600  0.99989700  0.50010200
   0.83333300  0.62510100  0.87489800
   0.83333200  0.87489900  0.87509900
   0.66666600  0.50010200  0.24989700
   0.66666500  0.49989700  0.00010200
   0.08333300  0.00119500  0.37619400
   0.24861600  0.12499900  0.24999900
   0.08472400  0.99999700  0.12501400
   0.24999900  0.87380400  0.24880300
   0.25000000  0.62619400  0.50119400
   0.08195000  0.75000000  0.37500000
   0.25138100  0.87499900  0.49999900
   0.08333200  0.74880300  0.62380400
   0.08333200  0.50119400  0.87619400
   0.24861600  0.62500000  0.75000000
   0.08471500  0.49999900  0.62500000
   0.24999900  0.37380400  0.74880300
   0.24999900  0.12619400  0.00119500
   0.08195100  0.24999900  0.87500000
   0.25138100  0.37499900  0.99999900
   0.08333200  0.24880300  0.12380400
   0.08333200  0.25119500  0.62619400
   0.24861600  0.37500000  0.50000000
   0.08471500  0.24999900  0.37500000
   0.24999900  0.12380400  0.49880300
   0.25000000  0.87619300  0.75119500
   0.08195000  0.00000000  0.62499900
   0.25138100  0.12500000  0.74999900
   0.08332400  0.99880100  0.87381900
   0.08333200  0.75119500  0.12619400
   0.24861600  0.87500000  0.00000000
   0.08471500  0.74999900  0.87499900
   0.24999900  0.62380400  0.99880300
   0.25000000  0.37619400  0.25119500
   0.08195000  0.49999900  0.12500000
   0.25138100  0.62500000  0.24999900
   0.08333200  0.49880300  0.37380400
   0.41666600  0.00119500  0.37619400
   0.58194900  0.12500000  0.25000000
   0.41804800  0.99999900  0.12499900
   0.58333200  0.87380400  0.24880300
   0.58333300  0.62619400  0.50119400
   0.41528300  0.75000000  0.37499900
   0.58471500  0.87499900  0.49999900
   0.41666600  0.74880300  0.62380400
   0.41666600  0.50119400  0.87619400
   0.58195000  0.62500000  0.75000000
   0.41804900  0.50000000  0.62499900
   0.58333200  0.37380400  0.74880300
   0.58333200  0.12619400  0.00119500
   0.41528400  0.24999900  0.87500000
   0.58471400  0.37499900  0.99999900
   0.41666600  0.24880300  0.12380400
   0.41666600  0.25119500  0.62619400
   0.58194900  0.37500000  0.49999900
   0.41804800  0.24999900  0.37499900
   0.58333200  0.12380400  0.49880300
   0.58333200  0.87619400  0.75119500
   0.41528400  0.00000000  0.62499900
   0.58471400  0.12499900  0.74999900
   0.41666600  0.99880300  0.87380400
   0.41666600  0.75119500  0.12619400
   0.58195000  0.87500000  0.00000000
   0.41804900  0.74999900  0.87499900
   0.58333200  0.62380400  0.99880300
   0.58333200  0.37619400  0.25119500
   0.41528300  0.49999900  0.12500000
   0.58471500  0.62500000  0.24999900
   0.41666500  0.49880300  0.37380400
   0.75000000  0.00119500  0.37619400
   0.91528300  0.12500000  0.25000000
   0.75138200  0.99999900  0.12499900
   0.91666600  0.87380400  0.24880300
   0.91666600  0.62619400  0.50119400
   0.74861700  0.75000000  0.37499900
   0.91804800  0.87499900  0.49999900
   0.74999900  0.74880300  0.62380400
   0.75000000  0.50119400  0.87619400
   0.91528300  0.62499900  0.75000000
   0.75138200  0.49999900  0.62499900
   0.91666600  0.37380400  0.74880300
   0.91667400  0.12617900  0.00119700
   0.74861700  0.24999900  0.87499900
   0.91804800  0.37499900  0.99999900
   0.74999800  0.24880300  0.12380500
   0.75000000  0.25119500  0.62619400
   0.91528300  0.37499900  0.50000000
   0.75138200  0.24999900  0.37499900
   0.91666600  0.12380400  0.49880300
   0.91666600  0.87619400  0.75119500
   0.74861700  0.00000000  0.62499900
   0.91804700  0.12499900  0.74999900
   0.75000000  0.99880300  0.87380400
   0.75000000  0.75119500  0.12619400
   0.91527400  0.87498400  0.00000000
   0.75138200  0.75000000  0.87500000
   0.91666500  0.62380400  0.99880300
   0.91666600  0.37619400  0.25119500
   0.74861700  0.49999900  0.12500000
   0.91804800  0.62499900  0.24999900
   0.74999900  0.49880300  0.37380400
