  192  192    1    2
  0.2007906E+02  0.1640400E-08  0.1533138E-08  0.1533138E-08  0.5000000E-15
  1.000000000000000E-004
  CAR 
 unknown system                          
   1729      1   1136
 
  0.0000000E+00  0.0000000E+00  0.0000000E+00  0.1000000E+01
    1      -25.168832    -25.169356   1.000000   1.000000
    2      -25.168725    -25.169247   1.000000   1.000000
    3      -25.156748    -25.157398   1.000000   1.000000
    4      -25.156241    -25.156901   1.000000   1.000000
    5      -25.153487    -25.152953   1.000000   1.000000
    6      -25.152538    -25.152008   1.000000   1.000000
    7      -25.148044    -25.146881   1.000000   1.000000
    8      -25.147560    -25.146623   1.000000   1.000000
    9      -25.146598    -25.146369   1.000000   1.000000
   10      -25.145752    -25.145772   1.000000   1.000000
   11      -25.140786    -25.140384   1.000000   1.000000
   12      -25.140256    -25.139952   1.000000   1.000000
   13      -25.136460    -25.134625   1.000000   1.000000
   14      -25.136251    -25.134412   1.000000   1.000000
   15      -25.135517    -25.134251   1.000000   1.000000
   16      -25.133936    -25.132852   1.000000   1.000000
   17      -25.129080    -25.126313   1.000000   1.000000
   18      -25.128379    -25.125977   1.000000   1.000000
   19      -25.126299    -25.124961   1.000000   1.000000
   20      -25.125815    -25.124100   1.000000   1.000000
   21      -25.121552    -25.121556   1.000000   1.000000
   22      -25.120092    -25.120103   1.000000   1.000000
   23      -25.118563    -25.115384   1.000000   1.000000
   24      -25.117955    -25.114787   1.000000   1.000000
   25      -25.114255    -25.112164   1.000000   1.000000
   26      -25.112929    -25.111437   1.000000   1.000000
   27      -25.112538    -25.110336   1.000000   1.000000
   28      -25.111981    -25.108481   1.000000   1.000000
   29      -25.108980    -25.108284   1.000000   1.000000
   30      -25.108353    -25.107560   1.000000   1.000000
   31      -25.101954    -25.101498   1.000000   1.000000
   32      -25.101736    -25.101153   1.000000   1.000000
   33      -25.097350    -25.097502   1.000000   1.000000
   34      -25.096493    -25.096672   1.000000   1.000000
   35      -25.090067    -25.088131   1.000000   1.000000
   36      -25.090026    -25.087964   1.000000   1.000000
   37      -25.087592    -25.083382   1.000000   1.000000
   38      -25.085077    -25.080819   1.000000   1.000000
   39      -25.077866    -25.077029   1.000000   1.000000
   40      -25.076723    -25.076055   1.000000   1.000000
   41      -25.021477    -25.021437   1.000000   1.000000
   42      -25.020173    -25.020156   1.000000   1.000000
   43      -25.018073    -25.018081   1.000000   1.000000
   44      -25.016170    -25.016171   1.000000   1.000000
   45      -25.010580    -25.010584   1.000000   1.000000
   46      -25.009895    -25.009893   1.000000   1.000000
   47      -24.991288    -24.991388   1.000000   1.000000
   48      -24.989664    -24.989763   1.000000   1.000000
   49      -24.987592    -24.987620   1.000000   1.000000
   50      -24.987384    -24.987413   1.000000   1.000000
   51      -24.987237    -24.987323   1.000000   1.000000
   52      -24.987013    -24.987025   1.000000   1.000000
   53      -24.985850    -24.985913   1.000000   1.000000
   54      -24.985668    -24.985754   1.000000   1.000000
   55      -24.985212    -24.985202   1.000000   1.000000
   56      -24.984454    -24.984517   1.000000   1.000000
   57      -24.982870    -24.982886   1.000000   1.000000
   58      -24.981822    -24.981866   1.000000   1.000000
   59      -24.981543    -24.981494   1.000000   1.000000
   60      -24.981401    -24.981414   1.000000   1.000000
   61      -24.981264    -24.981217   1.000000   1.000000
   62      -24.979983    -24.980031   1.000000   1.000000
   63      -24.979571    -24.979647   1.000000   1.000000
   64      -24.979496    -24.979588   1.000000   1.000000
   65      -24.979286    -24.979381   1.000000   1.000000
   66      -24.978577    -24.978504   1.000000   1.000000
   67      -24.978295    -24.978222   1.000000   1.000000
   68      -24.977717    -24.977796   1.000000   1.000000
   69      -24.977712    -24.977729   1.000000   1.000000
   70      -24.977092    -24.977089   1.000000   1.000000
   71      -24.975353    -24.975472   1.000000   1.000000
   72      -24.975310    -24.975422   1.000000   1.000000
   73      -24.971603    -24.971612   1.000000   1.000000
   74      -24.971443    -24.971454   1.000000   1.000000
   75      -24.967336    -24.967330   1.000000   1.000000
   76      -24.967197    -24.967190   1.000000   1.000000
   77      -24.964189    -24.964172   1.000000   1.000000
   78      -24.963138    -24.963123   1.000000   1.000000
   79      -24.961859    -24.961855   1.000000   1.000000
   80      -24.961314    -24.961312   1.000000   1.000000
   81      -24.960709    -24.960701   1.000000   1.000000
   82      -24.959978    -24.959847   1.000000   1.000000
   83      -24.959378    -24.959367   1.000000   1.000000
   84      -24.959274    -24.959113   1.000000   1.000000
   85      -24.959119    -24.958585   1.000000   1.000000
   86      -24.958499    -24.957997   1.000000   1.000000
   87      -24.957269    -24.957123   1.000000   1.000000
   88      -24.957083    -24.957045   1.000000   1.000000
   89      -24.956278    -24.956295   1.000000   1.000000
   90      -24.955712    -24.955681   1.000000   1.000000
   91      -24.955550    -24.955565   1.000000   1.000000
   92      -24.954736    -24.954639   1.000000   1.000000
   93      -24.954374    -24.954030   1.000000   1.000000
   94      -24.954036    -24.953963   1.000000   1.000000
   95      -24.953975    -24.953779   1.000000   1.000000
   96      -24.953853    -24.953704   1.000000   1.000000
   97      -24.953766    -24.952820   1.000000   1.000000
   98      -24.953111    -24.952658   1.000000   1.000000
   99      -24.952936    -24.952180   1.000000   1.000000
  100      -24.952408    -24.951829   1.000000   1.000000
  101      -24.952291    -24.951534   1.000000   1.000000
  102      -24.951983    -24.951497   1.000000   1.000000
  103      -24.951740    -24.951207   1.000000   1.000000
  104      -24.951630    -24.951130   1.000000   1.000000
  105      -24.951565    -24.950940   1.000000   1.000000
  106      -24.951302    -24.950471   1.000000   1.000000
  107      -24.951141    -24.949825   1.000000   1.000000
  108      -24.951049    -24.949753   1.000000   1.000000
  109      -24.950474    -24.949631   1.000000   1.000000
  110      -24.950186    -24.948913   1.000000   1.000000
  111      -24.949779    -24.948845   1.000000   1.000000
  112      -24.949138    -24.948221   1.000000   1.000000
  113      -24.949110    -24.948092   1.000000   1.000000
  114      -24.948987    -24.947991   1.000000   1.000000
  115      -24.948277    -24.947985   1.000000   1.000000
  116      -24.948142    -24.947702   1.000000   1.000000
  117      -24.948034    -24.947460   1.000000   1.000000
  118      -24.948021    -24.947176   1.000000   1.000000
  119      -24.947935    -24.947063   1.000000   1.000000
  120      -24.947697    -24.946815   1.000000   1.000000
  121      -24.947370    -24.945985   1.000000   1.000000
  122      -24.947238    -24.945871   1.000000   1.000000
  123      -24.947123    -24.945792   1.000000   1.000000
  124      -24.947034    -24.945653   1.000000   1.000000
  125      -24.946786    -24.945427   1.000000   1.000000
  126      -24.946150    -24.944935   1.000000   1.000000
  127      -24.945785    -24.944855   1.000000   1.000000
  128      -24.945611    -24.944696   1.000000   1.000000
  129      -24.945505    -24.944620   1.000000   1.000000
  130      -24.945347    -24.944432   1.000000   1.000000
  131      -24.944994    -24.944366   1.000000   1.000000
  132      -24.944890    -24.944305   1.000000   1.000000
  133      -24.944735    -24.944190   1.000000   1.000000
  134      -24.944476    -24.943905   1.000000   1.000000
  135      -24.944397    -24.943726   1.000000   1.000000
  136      -24.944304    -24.943589   1.000000   1.000000
  137      -24.944247    -24.943404   1.000000   1.000000
  138      -24.944112    -24.943364   1.000000   1.000000
  139      -24.944060    -24.943345   1.000000   1.000000
  140      -24.943967    -24.943192   1.000000   1.000000
  141      -24.943562    -24.943147   1.000000   1.000000
  142      -24.943421    -24.942915   1.000000   1.000000
  143      -24.943263    -24.942709   1.000000   1.000000
  144      -24.943198    -24.942534   1.000000   1.000000
  145      -24.943100    -24.942346   1.000000   1.000000
  146      -24.942984    -24.939875   1.000000   1.000000
  147      -24.942728    -24.939845   1.000000   1.000000
  148      -24.942608    -24.939698   1.000000   1.000000
  149      -24.942441    -24.939463   1.000000   1.000000
  150      -24.941558    -24.939404   1.000000   1.000000
  151      -24.941440    -24.939386   1.000000   1.000000
  152      -24.941351    -24.939188   1.000000   1.000000
  153      -24.939813    -24.938535   1.000000   1.000000
  154      -24.939808    -24.938030   1.000000   1.000000
  155      -24.939460    -24.937921   1.000000   1.000000
  156      -24.939394    -24.937596   1.000000   1.000000
  157      -24.938567    -24.937513   1.000000   1.000000
  158      -24.938014    -24.937036   1.000000   1.000000
  159      -24.937620    -24.936593   1.000000   1.000000
  160      -24.937534    -24.936558   1.000000   1.000000
  161      -24.937086    -24.936477   1.000000   1.000000
  162      -24.936664    -24.936008   1.000000   1.000000
  163      -24.936620    -24.935916   1.000000   1.000000
  164      -24.936552    -24.934468   1.000000   1.000000
  165      -24.936015    -24.933489   1.000000   1.000000
  166      -24.935943    -24.933277   1.000000   1.000000
  167      -24.934495    -24.933209   1.000000   1.000000
  168      -24.933558    -24.932910   1.000000   1.000000
  169      -24.933291    -24.932165   1.000000   1.000000
  170      -24.933244    -24.930962   1.000000   1.000000
  171      -24.932921    -24.930549   1.000000   1.000000
  172      -24.932235    -24.929844   1.000000   1.000000
  173      -24.932211    -24.929609   1.000000   1.000000
  174      -24.931024    -24.928801   1.000000   1.000000
  175      -24.930703    -24.928397   1.000000   1.000000
  176      -24.930198    -24.927342   1.000000   1.000000
  177      -24.929669    -24.926218   1.000000   1.000000
  178      -24.928916    -24.924671   1.000000   1.000000
  179      -24.928598    -24.924639   1.000000   1.000000
  180      -24.927389    -24.924417   1.000000   1.000000
  181      -24.926569    -24.924055   1.000000   1.000000
  182      -24.925138    -24.923976   1.000000   1.000000
  183      -24.924651    -24.923826   1.000000   1.000000
  184      -24.924520    -24.923004   1.000000   1.000000
  185      -24.924422    -24.922850   1.000000   1.000000
  186      -24.924385    -24.921495   1.000000   1.000000
  187      -24.924084    -24.921241   1.000000   1.000000
  188      -24.923426    -24.921018   1.000000   1.000000
  189      -24.923367    -24.919095   1.000000   1.000000
  190      -24.922928    -24.918872   1.000000   1.000000
  191      -24.921485    -24.917917   1.000000   1.000000
  192      -24.921243    -24.917015   1.000000   1.000000
  193      -24.921087    -24.916988   1.000000   1.000000
  194      -24.919573    -24.916937   1.000000   1.000000
  195      -24.919338    -24.916449   1.000000   1.000000
  196      -24.917950    -24.916025   1.000000   1.000000
  197      -24.917363    -24.915951   1.000000   1.000000
  198      -24.917245    -24.915931   1.000000   1.000000
  199      -24.917033    -24.915825   1.000000   1.000000
  200      -24.916974    -24.914954   1.000000   1.000000
  201      -24.916931    -24.914878   1.000000   1.000000
  202      -24.916810    -24.914541   1.000000   1.000000
  203      -24.916476    -24.914146   1.000000   1.000000
  204      -24.916353    -24.914002   1.000000   1.000000
  205      -24.915171    -24.913180   1.000000   1.000000
  206      -24.915090    -24.913177   1.000000   1.000000
  207      -24.914964    -24.913115   1.000000   1.000000
  208      -24.914555    -24.913066   1.000000   1.000000
  209      -24.914259    -24.911199   1.000000   1.000000
  210      -24.914168    -24.911064   1.000000   1.000000
  211      -24.914035    -24.910382   1.000000   1.000000
  212      -24.913213    -24.910062   1.000000   1.000000
  213      -24.913185    -24.908312   1.000000   1.000000
  214      -24.913129    -24.908279   1.000000   1.000000
  215      -24.913102    -24.907459   1.000000   1.000000
  216      -24.911227    -24.907437   1.000000   1.000000
  217      -24.911110    -24.906987   1.000000   1.000000
  218      -24.908667    -24.906818   1.000000   1.000000
  219      -24.908649    -24.906305   1.000000   1.000000
  220      -24.908307    -24.905932   1.000000   1.000000
  221      -24.908280    -24.905448   1.000000   1.000000
  222      -24.907665    -24.905268   1.000000   1.000000
  223      -24.907499    -24.905247   1.000000   1.000000
  224      -24.907034    -24.905069   1.000000   1.000000
  225      -24.906840    -24.904742   1.000000   1.000000
  226      -24.906355    -24.904602   1.000000   1.000000
  227      -24.906003    -24.904371   1.000000   1.000000
  228      -24.905492    -24.902896   1.000000   1.000000
  229      -24.905281    -24.902865   1.000000   1.000000
  230      -24.904760    -24.902659   1.000000   1.000000
  231      -24.904406    -24.901985   1.000000   1.000000
  232      -24.902917    -24.901889   1.000000   1.000000
  233      -24.902889    -24.897798   1.000000   1.000000
  234      -24.902713    -24.896682   1.000000   1.000000
  235      -24.902098    -24.896123   1.000000   1.000000
  236      -24.896712    -24.895839   1.000000   1.000000
  237      -24.896436    -24.895553   1.000000   1.000000
  238      -24.895890    -24.894771   1.000000   1.000000
  239      -24.895563    -24.890925   1.000000   1.000000
  240      -24.894813    -24.890668   1.000000   1.000000
  241      -24.891378    -24.887299   1.000000   1.000000
  242      -24.891116    -24.881906   1.000000   1.000000
  243      -24.887655    -24.881785   1.000000   1.000000
  244      -24.882491    -24.880552   1.000000   1.000000
  245      -24.882363    -24.873021   1.000000   1.000000
  246      -11.408089    -11.380170   1.000000   1.000000
  247      -11.046056    -11.010722   1.000000   1.000000
  248      -10.963966    -10.952282   1.000000   1.000000
  249      -10.893184    -10.884438   1.000000   1.000000
  250      -10.890068    -10.878127   1.000000   1.000000
  251      -10.870165    -10.862945   1.000000   1.000000
  252      -10.840087    -10.835036   1.000000   1.000000
  253      -10.586596    -10.568746   1.000000   1.000000
  254      -10.583516    -10.568118   1.000000   1.000000
  255      -10.580552    -10.561000   1.000000   1.000000
  256      -10.566080    -10.551859   1.000000   1.000000
  257      -10.540256    -10.535100   1.000000   1.000000
  258      -10.518614    -10.515930   1.000000   1.000000
  259      -10.515114    -10.511099   1.000000   1.000000
  260      -10.510399    -10.506374   1.000000   1.000000
  261      -10.500597    -10.499578   1.000000   1.000000
  262      -10.500582    -10.497398   1.000000   1.000000
  263      -10.316738    -10.304825   1.000000   1.000000
  264      -10.296690    -10.287792   1.000000   1.000000
  265      -10.264250    -10.257282   1.000000   1.000000
  266      -10.237217    -10.234859   1.000000   1.000000
  267      -10.223632    -10.217878   1.000000   1.000000
  268      -10.219547    -10.210525   1.000000   1.000000
  269      -10.207279    -10.203045   1.000000   1.000000
  270      -10.199216    -10.194320   1.000000   1.000000
  271       -9.921885     -9.908774   1.000000   1.000000
  272       -9.900919     -9.895459   1.000000   1.000000
  273       -9.639375     -9.620330   1.000000   1.000000
  274       -9.637098     -9.617261   1.000000   1.000000
  275       -9.613849     -9.600814   1.000000   1.000000
  276       -9.600693     -9.593951   1.000000   1.000000
  277       -9.506924     -9.481333   1.000000   1.000000
  278       -9.464433     -9.454479   1.000000   1.000000
  279       -9.434727     -9.420938   1.000000   1.000000
  280       -9.420631     -9.407785   1.000000   1.000000
  281       -9.392351     -9.385522   1.000000   1.000000
  282       -9.380058     -9.373642   1.000000   1.000000
  283       -9.373574     -9.371176   1.000000   1.000000
  284       -9.372093     -9.363383   1.000000   1.000000
  285       -9.360056     -9.355974   1.000000   1.000000
  286       -9.358033     -9.355642   1.000000   1.000000
  287       -9.301236     -9.264857   1.000000   1.000000
  288       -9.190168     -9.186204   1.000000   1.000000
  289       -9.189780     -9.182098   1.000000   1.000000
  290       -9.183883     -9.177525   1.000000   1.000000
  291       -9.155972     -9.140692   1.000000   1.000000
  292       -8.922706     -8.908673   1.000000   1.000000
  293       -8.898906     -8.894109   1.000000   1.000000
  294       -8.840240     -8.827576   1.000000   1.000000
  295       -8.836005     -8.824447   1.000000   1.000000
  296       -8.815440     -8.809620   1.000000   1.000000
  297       -8.748347     -8.744395   1.000000   1.000000
  298       -8.725178     -8.715797   1.000000   1.000000
  299       -8.711244     -8.692136   1.000000   1.000000
  300       -8.684690     -8.680862   1.000000   1.000000
  301       -8.642807     -8.633661   1.000000   1.000000
  302       -8.618919     -8.610441   1.000000   1.000000
  303       -8.616645     -8.606159   1.000000   1.000000
  304       -8.605699     -8.596963   1.000000   1.000000
  305       -8.605624     -8.594300   1.000000   1.000000
  306       -8.585031     -8.579504   1.000000   1.000000
  307       -8.582714     -8.577424   1.000000   1.000000
  308       -8.574196     -8.571401   1.000000   1.000000
  309       -8.530030     -8.520605   1.000000   1.000000
  310       -8.518502     -8.515044   1.000000   1.000000
  311       -8.505589     -8.496719   1.000000   1.000000
  312       -8.483949     -8.472028   1.000000   1.000000
  313       -8.473561     -8.460177   1.000000   1.000000
  314       -8.464597     -8.454351   1.000000   1.000000
  315       -8.447562     -8.443173   1.000000   1.000000
  316       -8.438859     -8.435020   1.000000   1.000000
  317       -8.433534     -8.428655   1.000000   1.000000
  318       -8.424015     -8.421403   1.000000   1.000000
  319       -8.385915     -8.382593   1.000000   1.000000
  320       -8.385640     -8.380790   1.000000   1.000000
  321       -8.365223     -8.361505   1.000000   1.000000
  322       -8.363717     -8.360432   1.000000   1.000000
  323       -8.352309     -8.348299   1.000000   1.000000
  324       -8.348507     -8.345995   1.000000   1.000000
  325       -8.343558     -8.341008   1.000000   1.000000
  326       -8.341368     -8.339618   1.000000   1.000000
  327       -8.247325     -8.228865   1.000000   1.000000
  328       -8.186306     -8.179122   1.000000   1.000000
  329       -8.183386     -8.177443   1.000000   1.000000
  330       -8.169097     -8.164578   1.000000   1.000000
  331       -8.159626     -8.151759   1.000000   1.000000
  332       -8.139448     -8.127023   1.000000   1.000000
  333       -8.115150     -8.113027   1.000000   1.000000
  334       -8.100673     -8.097635   1.000000   1.000000
  335       -8.100456     -8.097026   1.000000   1.000000
  336       -8.093574     -8.091089   1.000000   1.000000
  337       -8.088661     -8.085997   1.000000   1.000000
  338       -8.077616     -8.074813   1.000000   1.000000
  339       -8.077458     -8.074227   1.000000   1.000000
  340       -8.065862     -8.064026   1.000000   1.000000
  341       -8.051861     -8.050367   1.000000   1.000000
  342       -6.893685     -6.889822   1.000000   1.000000
  343       -6.288537     -6.270365   1.000000   1.000000
  344       -6.270799     -6.266724   1.000000   1.000000
  345       -6.175443     -6.130306   1.000000   1.000000
  346       -6.118794     -6.113676   1.000000   1.000000
  347       -6.107095     -6.103305   1.000000   1.000000
  348       -6.087182     -6.084026   1.000000   1.000000
  349       -6.061642     -6.025769   1.000000   1.000000
  350       -5.952059     -5.948649   1.000000   1.000000
  351       -5.951166     -5.947733   1.000000   1.000000
  352       -5.950309     -5.944699   1.000000   1.000000
  353       -5.928812     -5.926100   1.000000   1.000000
  354       -5.923262     -5.917915   1.000000   1.000000
  355       -5.919811     -5.917174   1.000000   1.000000
  356       -5.911915     -5.910515   1.000000   1.000000
  357       -5.908443     -5.905351   1.000000   1.000000
  358       -5.907145     -5.897918   1.000000   1.000000
  359       -5.900429     -5.897002   1.000000   1.000000
  360       -5.812421     -5.811265   1.000000   1.000000
  361       -5.810982     -5.808809   1.000000   1.000000
  362       -5.801051     -5.799369   1.000000   1.000000
  363       -5.798148     -5.793470   1.000000   1.000000
  364       -5.794713     -5.790512   1.000000   1.000000
  365       -5.776441     -5.774243   1.000000   1.000000
  366       -5.775950     -5.773176   1.000000   1.000000
  367       -5.768950     -5.767324   1.000000   1.000000
  368       -5.768630     -5.766106   1.000000   1.000000
  369       -5.757971     -5.756487   1.000000   1.000000
  370       -5.755155     -5.752546   1.000000   1.000000
  371       -5.751170     -5.749128   1.000000   1.000000
  372       -5.737069     -5.735733   1.000000   1.000000
  373       -5.719235     -5.717085   1.000000   1.000000
  374       -5.717916     -5.716866   1.000000   1.000000
  375       -5.711842     -5.711050   1.000000   1.000000
  376       -5.708696     -5.707379   1.000000   1.000000
  377       -5.702101     -5.700916   1.000000   1.000000
  378       -5.698351     -5.696968   1.000000   1.000000
  379       -5.694337     -5.693662   1.000000   1.000000
  380       -5.687313     -5.686088   1.000000   1.000000
  381       -5.680982     -5.679521   1.000000   1.000000
  382       -5.679220     -5.678138   1.000000   1.000000
  383       -5.678049     -5.677196   1.000000   1.000000
  384       -5.643320     -5.642775   1.000000   1.000000
  385       -5.642043     -5.641293   1.000000   1.000000
  386       -5.638452     -5.637709   1.000000   1.000000
  387       -5.633873     -5.633202   1.000000   1.000000
  388       -5.632346     -5.631374   1.000000   1.000000
  389       -5.625516     -5.623533   1.000000   1.000000
  390       -5.584172     -5.582672   1.000000   1.000000
  391       -5.574244     -5.570755   1.000000   1.000000
  392       -5.571046     -5.568185   1.000000   1.000000
  393       -5.563396     -5.560336   1.000000   1.000000
  394       -5.545189     -5.542485   1.000000   1.000000
  395       -5.534849     -5.533171   1.000000   1.000000
  396       -5.531337     -5.528721   1.000000   1.000000
  397       -5.529170     -5.527165   1.000000   1.000000
  398       -5.521156     -5.519640   1.000000   1.000000
  399       -5.516934     -5.515178   1.000000   1.000000
  400       -5.510696     -5.509377   1.000000   1.000000
  401       -5.507816     -5.506807   1.000000   1.000000
  402       -5.506798     -5.506077   1.000000   1.000000
  403       -5.504696     -5.503325   1.000000   1.000000
  404       -5.503490     -5.503164   1.000000   1.000000
  405       -5.500499     -5.499658   1.000000   1.000000
  406       -5.500086     -5.497199   1.000000   1.000000
  407       -5.495192     -5.494420   1.000000   1.000000
  408       -5.491928     -5.490682   1.000000   1.000000
  409       -5.490035     -5.489070   1.000000   1.000000
  410       -5.489156     -5.488305   1.000000   1.000000
  411       -5.488256     -5.487151   1.000000   1.000000
  412       -5.486439     -5.485272   1.000000   1.000000
  413       -5.485764     -5.484711   1.000000   1.000000
  414       -5.483612     -5.481955   1.000000   1.000000
  415       -5.480752     -5.479666   1.000000   1.000000
  416       -5.479602     -5.478723   1.000000   1.000000
  417       -5.478566     -5.477633   1.000000   1.000000
  418       -5.476958     -5.476189   1.000000   1.000000
  419       -5.476429     -5.475772   1.000000   1.000000
  420       -5.475884     -5.474561   1.000000   1.000000
  421       -5.475279     -5.473720   1.000000   1.000000
  422       -5.473951     -5.472274   1.000000   1.000000
  423       -5.473632     -5.471147   1.000000   1.000000
  424       -5.468587     -5.467516   1.000000   1.000000
  425       -5.468002     -5.467006   1.000000   1.000000
  426       -5.464340     -5.461739   1.000000   1.000000
  427       -5.463078     -5.461501   1.000000   1.000000
  428       -5.459882     -5.459440   1.000000   1.000000
  429       -5.458402     -5.458175   1.000000   1.000000
  430       -5.456663     -5.456249   1.000000   1.000000
  431       -5.454514     -5.454070   1.000000   1.000000
  432       -5.454337     -5.453768   1.000000   1.000000
  433       -5.452784     -5.452290   1.000000   1.000000
  434       -5.452337     -5.451316   1.000000   1.000000
  435       -5.451046     -5.450118   1.000000   1.000000
  436       -5.448929     -5.447404   1.000000   1.000000
  437       -5.447658     -5.445438   1.000000   1.000000
  438       -5.446075     -5.445063   1.000000   1.000000
  439       -5.443513     -5.442705   1.000000   1.000000
  440       -5.442238     -5.441410   1.000000   1.000000
  441       -5.441500     -5.440838   1.000000   1.000000
  442       -5.438280     -5.437605   1.000000   1.000000
  443       -5.434020     -5.433320   1.000000   1.000000
  444       -5.431803     -5.431434   1.000000   1.000000
  445       -5.430835     -5.430303   1.000000   1.000000
  446       -5.428709     -5.428072   1.000000   1.000000
  447       -5.427545     -5.426677   1.000000   1.000000
  448       -5.419019     -5.418382   1.000000   1.000000
  449       -5.418566     -5.418190   1.000000   1.000000
  450       -5.413987     -5.413296   1.000000   1.000000
  451       -5.407795     -5.406382   1.000000   1.000000
  452       -5.405945     -5.405391   1.000000   1.000000
  453       -5.404074     -5.403341   1.000000   1.000000
  454       -5.401704     -5.400999   1.000000   1.000000
  455       -5.400679     -5.400271   1.000000   1.000000
  456       -5.397896     -5.397536   1.000000   1.000000
  457       -5.397097     -5.396425   1.000000   1.000000
  458       -5.393691     -5.393279   1.000000   1.000000
  459       -5.391980     -5.391637   1.000000   1.000000
  460       -5.389904     -5.389241   1.000000   1.000000
  461       -5.389677     -5.389031   1.000000   1.000000
  462       -5.387865     -5.387179   1.000000   1.000000
  463       -5.385098     -5.384291   1.000000   1.000000
  464       -5.383323     -5.382253   1.000000   1.000000
  465       -5.382096     -5.381566   1.000000   1.000000
  466       -5.375691     -5.375215   1.000000   1.000000
  467       -5.375429     -5.374899   1.000000   1.000000
  468       -5.373195     -5.372517   1.000000   1.000000
  469       -5.371850     -5.371026   1.000000   1.000000
  470       -5.366889     -5.366107   1.000000   1.000000
  471       -5.365372     -5.364620   1.000000   1.000000
  472       -5.365002     -5.364274   1.000000   1.000000
  473       -5.363760     -5.363134   1.000000   1.000000
  474       -5.358337     -5.357864   1.000000   1.000000
  475       -5.356440     -5.355984   1.000000   1.000000
  476       -5.355854     -5.355526   1.000000   1.000000
  477       -5.354571     -5.353959   1.000000   1.000000
  478       -5.352111     -5.351451   1.000000   1.000000
  479       -5.350132     -5.349506   1.000000   1.000000
  480       -5.347562     -5.347107   1.000000   1.000000
  481       -5.345104     -5.344715   1.000000   1.000000
  482       -5.344859     -5.344541   1.000000   1.000000
  483       -5.343936     -5.343346   1.000000   1.000000
  484       -5.339012     -5.338321   1.000000   1.000000
  485       -5.338737     -5.337932   1.000000   1.000000
  486       -5.336596     -5.336365   1.000000   1.000000
  487       -5.335518     -5.334762   1.000000   1.000000
  488       -5.333370     -5.333044   1.000000   1.000000
  489       -5.333228     -5.332797   1.000000   1.000000
  490       -5.331766     -5.331342   1.000000   1.000000
  491       -5.329869     -5.329302   1.000000   1.000000
  492       -5.328715     -5.328315   1.000000   1.000000
  493       -5.326079     -5.325661   1.000000   1.000000
  494       -5.325415     -5.325129   1.000000   1.000000
  495       -5.323064     -5.321897   1.000000   1.000000
  496       -5.320838     -5.320394   1.000000   1.000000
  497       -5.319574     -5.319279   1.000000   1.000000
  498       -5.317017     -5.316760   1.000000   1.000000
  499       -5.313801     -5.313503   1.000000   1.000000
  500       -5.312718     -5.312192   1.000000   1.000000
  501       -5.311850     -5.311425   1.000000   1.000000
  502       -5.311677     -5.311183   1.000000   1.000000
  503       -5.311009     -5.310556   1.000000   1.000000
  504       -5.310711     -5.310192   1.000000   1.000000
  505       -5.308694     -5.308332   1.000000   1.000000
  506       -5.307481     -5.307140   1.000000   1.000000
  507       -5.307025     -5.306822   1.000000   1.000000
  508       -5.306043     -5.305866   1.000000   1.000000
  509       -5.303214     -5.302812   1.000000   1.000000
  510       -5.303123     -5.302734   1.000000   1.000000
  511       -5.299263     -5.298916   1.000000   1.000000
  512       -5.298825     -5.298417   1.000000   1.000000