       N       E                     dE             d eps       ncg     rms          ort
SDA:   1    -0.113190131683E+04   -0.11319E+04   -0.14904E+02  1136   0.373E+02 0.000E+00
DMP:   2    -0.113664260062E+04   -0.47413E+01   -0.77425E+01  1136   0.244E+02-0.131E+02
DMP:   3    -0.114072924457E+04   -0.40866E+01   -0.13185E+01  1136   0.287E+01 0.111E+01
DMP:   4    -0.114135273513E+04   -0.62349E+00   -0.10883E+01  1136   0.278E+01-0.156E+00
DMP:   5    -0.114186491892E+04   -0.51218E+00   -0.29156E+00  1136   0.784E+00-0.144E+00
DMP:   6    -0.114206906206E+04   -0.20414E+00   -0.17620E+00  1136   0.328E+00 0.296E+00
DMP:   7    -0.114215118452E+04   -0.82122E-01   -0.91008E-01  1136   0.239E+00-0.288E-01
DMP:   8    -0.114220470162E+04   -0.53517E-01   -0.19087E-01  1136   0.325E-01 0.398E-01
DMP:   9    -0.114221789612E+04   -0.13195E-01   -0.15648E-01  1136   0.321E-01 0.185E-01
DMP:  10    -0.114222438500E+04   -0.64889E-02   -0.77132E-02  1136   0.216E-01-0.614E-02
DMP:  11    -0.114222881927E+04   -0.44343E-02   -0.15101E-02  1136   0.270E-02 0.281E-02
DMP:  12    -0.114222996764E+04   -0.11484E-02   -0.10740E-02  1136   0.190E-02 0.206E-02
DMP:  13    -0.114223038464E+04   -0.41700E-03   -0.74777E-03  1136   0.204E-02-0.457E-03
DMP:  14    -0.114223073856E+04   -0.35392E-03   -0.20551E-03  1136   0.570E-03-0.147E-03
DMP:  15    -0.114223086199E+04   -0.12343E-03   -0.52127E-04  1136   0.741E-04 0.147E-03
DMP:  16    -0.114223090188E+04   -0.39887E-04   -0.32807E-04  1136   0.518E-04 0.792E-04
DMP:  17    -0.114223092414E+04   -0.22266E-04   -0.15279E-04  1136   0.294E-04 0.231E-04
DMP:  18    -0.114223093330E+04   -0.91581E-05   -0.56799E-05  1136   0.758E-05 0.173E-04
   1 F= -.11422309E+04 E0= -.11422309E+04  d E =-.173631E-12  mag=     1.0000
