 vasp.5.4.4.18Apr17-6-g9f103f2a35 (build Mar 26 2021 15:05:33) gamma-only       
  
 executed on             LinuxIFC date 2022.01.31  14:35:04
 running on  128 total cores
 distrk:  each k-point on  128 cores,    1 groups
 distr:  one band on NCORES_PER_BAND=   8 cores,   16 groups


--------------------------------------------------------------------------------------------------------


 INCAR:
 POTCAR:   PAW_PBE Zn 06Sep2000                   
 POTCAR:   PAW_PBE Ge_d 06Sep2000                 
 POTCAR:    PAW_PBE P 17Jan2003                   
 POTCAR:   PAW_PBE Zn 06Sep2000                   
   VRHFIN =Zn: d10 p2                                                           
   LEXCH  = PE                                                                  
   EATOM  =  1749.0928 eV,  128.5547 Ry                                         
                                                                                
   TITEL  = PAW_PBE Zn 06Sep2000                                                
   LULTRA =        F    use ultrasoft PP ?                                      
   IUNSCR =        1    unscreen: 0-lin 1-nonlin 2-no                           
   RPACOR =    2.000    partial core radius                                     
   POMASS =   65.390; ZVAL   =   12.000    mass and valenz                      
   RCORE  =    2.300    outmost cutoff radius                                   
   RWIGS  =    2.400; RWIGS  =    1.270    wigner-seitz radius (au A)           
   ENMAX  =  276.727; ENMIN  =  207.545 eV                                      
   RCLOC  =    1.828    cutoff for local pot                                    
   LCOR   =        T    correct aug charges                                     
   LPAW   =        T    paw PP                                                  
   EAUG   =  575.892                                                            
   DEXC   =    -.003                                                            
   RMAX   =    2.772    core radius for proj-oper                               
   RAUG   =    1.300    factor for augmentation sphere                          
   RDEP   =    2.324    radius for radial grids                                 
   QCUT   =   -4.510; QGAM   =    9.020    optimization parameters              
                                                                                
   Description                                                                  
     l     E      TYP  RCUT    TYP  RCUT                                        
     2   .000     23  2.300                                                     
     2   .000     23  2.300                                                     
     0   .000     23  2.300                                                     
     0   .000     23  2.300                                                     
     1  -.200     23  2.300                                                     
     1   .000     23  2.300                                                     
     3   .000      7   .000                                                     
  local pseudopotential read in
  partial core-charges read in
  atomic valenz-charges read in
  non local Contribution for L=           2  read in
    real space projection operators read in
  non local Contribution for L=           2  read in
    real space projection operators read in
  non local Contribution for L=           0  read in
    real space projection operators read in
  non local Contribution for L=           0  read in
    real space projection operators read in
  non local Contribution for L=           1  read in
    real space projection operators read in
  non local Contribution for L=           1  read in
    real space projection operators read in
    PAW grid and wavefunctions read in
 
   number of l-projection  operators is LMAX  =           6
   number of lm-projection operators is LMMAX =          18
 
 POTCAR:   PAW_PBE Ge_d 06Sep2000                 
   VRHFIN =Ge: 3d4s4p                                                           
   LEXCH  = PE                                                                  
   EATOM  =  2596.4246 eV,  190.8318 Ry                                         
                                                                                
   TITEL  = PAW_PBE Ge_d 06Sep2000                                              
   LULTRA =        F    use ultrasoft PP ?                                      
   IUNSCR =        1    unscreen: 0-lin 1-nonlin 2-no                           
   RPACOR =    2.000    partial core radius                                     
   POMASS =   72.610; ZVAL   =   14.000    mass and valenz                      
   RCORE  =    2.300    outmost cutoff radius                                   
   RWIGS  =    2.300; RWIGS  =    1.217    wigner-seitz radius (au A)           
   ENMAX  =  287.568; ENMIN  =  215.676 eV                                      
   ICORE  =        3    local potential                                         
   LCOR   =        T    correct aug charges                                     
   LPAW   =        T    paw PP                                                  
   EAUG   =  531.356                                                            
   DEXC   =     .000                                                            
   RMAX   =    2.719    core radius for proj-oper                               
   RAUG   =    1.300    factor for augmentation sphere                          
   RDEP   =    2.318    radius for radial grids                                 
   QCUT   =   -4.597; QGAM   =    9.195    optimization parameters              
                                                                                
   Description                                                                  
     l     E      TYP  RCUT    TYP  RCUT                                        
     2   .000     23  2.300                                                     
     2  -.100     23  2.300                                                     
     0   .000     23  2.300                                                     
     0   .000     23  2.300                                                     
     1   .000     23  2.300                                                     
     1   .000     23  2.300                                                     
     3  -.100      7  2.300                                                     
  local pseudopotential read in
  partial core-charges read in
  atomic valenz-charges read in
  non local Contribution for L=           2  read in
    real space projection operators read in
  non local Contribution for L=           2  read in
    real space projection operators read in
  non local Contribution for L=           0  read in
    real space projection operators read in
  non local Contribution for L=           0  read in
    real space projection operators read in
  non local Contribution for L=           1  read in
    real space projection operators read in
  non local Contribution for L=           1  read in
    real space projection operators read in
    PAW grid and wavefunctions read in
 
   number of l-projection  operators is LMAX  =           6
   number of lm-projection operators is LMMAX =          18
 
 POTCAR:    PAW_PBE P 17Jan2003                   
   VRHFIN =P : s2p3                                                             
   LEXCH  = PE                                                                  
   EATOM  =   176.0430 eV,   12.9388 Ry                                         
                                                                                
   TITEL  = PAW_PBE P 17Jan2003                                                 
   LULTRA =        F    use ultrasoft PP ?                                      
   IUNSCR =        1    unscreen: 0-lin 1-nonlin 2-no                           
   RPACOR =    1.500    partial core radius                                     
   POMASS =   30.974; ZVAL   =    5.000    mass and valenz                      
   RCORE  =    1.900    outmost cutoff radius                                   
   RWIGS  =    2.330; RWIGS  =    1.233    wigner-seitz radius (au A)           
   ENMAX  =  270.000; ENMIN  =  191.280 eV                                      
   ICORE  =        2    local potential                                         
   LCOR   =        T    correct aug charges                                     
   LPAW   =        T    paw PP                                                  
   EAUG   =  342.924                                                            
   DEXC   =    -.002                                                            
   RMAX   =    2.887    core radius for proj-oper                               
   RAUG   =    1.300    factor for augmentation sphere                          
   RDEP   =    1.931    radius for radial grids                                 
   QCUT   =   -4.330; QGAM   =    8.659    optimization parameters              
                                                                                
   Description                                                                  
     l     E      TYP  RCUT    TYP  RCUT                                        
     0   .000     23  1.900                                                     
     0   .000     23  1.900                                                     
     1   .000     23  1.900                                                     
     1   .000     23  1.900                                                     
     2   .000     23  1.900                                                     
  local pseudopotential read in
  partial core-charges read in
  atomic valenz-charges read in
  non local Contribution for L=           0  read in
    real space projection operators read in
  non local Contribution for L=           0  read in
    real space projection operators read in
  non local Contribution for L=           1  read in
    real space projection operators read in
  non local Contribution for L=           1  read in
    real space projection operators read in
    PAW grid and wavefunctions read in
 
   number of l-projection  operators is LMAX  =           4
   number of lm-projection operators is LMMAX =           8
 

 ----------------------------------------------------------------------------- 
|                                                                             |
|  ADVICE TO THIS USER RUNNING 'VASP/VAMP'   (HEAR YOUR MASTER'S VOICE ...):  |
|                                                                             |
|      You have a (more or less) 'large supercell' and for larger cells       |
|      it might be more efficient to use real space projection operators      |
|      So try LREAL= Auto  in the INCAR   file.                               |
|      Mind: If you want to do a very accurate calculations keep the          |
|      reciprocal projection scheme          (i.e. LREAL=.FALSE.)             |
|                                                                             |
 ----------------------------------------------------------------------------- 

 PAW_PBE Zn 06Sep2000                   :
 energy of atom  1       EATOM=-1749.0928
 kinetic energy error for atom=    0.0174 (will be added to EATOM!!)
 PAW_PBE Ge_d 06Sep2000                 :
 energy of atom  2       EATOM=-2596.4246
 kinetic energy error for atom=    0.0135 (will be added to EATOM!!)
  PAW_PBE P 17Jan2003                   :
 energy of atom  3       EATOM= -176.0430
 kinetic energy error for atom=    0.0024 (will be added to EATOM!!)
 
 
 POSCAR: Zn47Ge49P96                             
  positions in direct lattice
  velocities in cartesian coordinates
 exchange correlation table for  LEXCH =        8
   RHO(1)=    0.500       N(1)  =     2000
   RHO(2)=  100.500       N(2)  =     4000
 


--------------------------------------------------------------------------------------------------------


 ion  position               nearest neighbor table
   1  0.998  0.000  0.997- 120 2.35 186 2.35 173 2.35  99 2.38
   2  0.167  0.624  0.375- 101 2.36 128 2.36 127 2.37 102 2.37
   3  0.168  0.873  0.374- 100 2.36 102 2.36 103 2.37  97 2.39
   4  1.000  0.500  0.750- 172 2.37 105 2.37 170 2.37 107 2.37
   5  0.000  0.500  0.500- 128 2.37 107 2.37 165 2.37 178 2.37
   6  0.167  0.125  0.875- 120 2.36 109 2.37 110 2.37 119 2.37
   7  0.167  0.375  0.875- 108 2.36 105 2.36 111 2.37 110 2.37
   8  0.000  0.250  0.501- 113 2.36 178 2.36 180 2.37 115 2.37
   9  0.002  0.253  0.250- 189 2.35 115 2.35 112 2.35 162 2.38
  10  0.167  0.875  0.625- 104 2.36 117 2.37 118 2.37 103 2.37
  11  0.166  0.125  0.625- 113 2.36 119 2.37 116 2.37 118 2.37
  12  1.000  0.749  1.000- 188 2.36 123 2.36 121 2.37 186 2.37
  13  1.000  0.750  0.750- 181 2.37 170 2.37 104 2.37 123 2.37
  14  0.167  0.375  0.125- 125 2.36 111 2.36 126 2.37 112 2.37
  15  0.167  0.624  0.125- 124 2.36 126 2.37 127 2.37 121 2.37
  16  0.334  1.000  0.250- 129 2.36 131 2.36 100 2.37  98 2.37
  17  0.334  0.000  1.000- 152 2.36 131 2.37 109 2.37 122 2.37
  18  0.500  0.625  0.375- 133 2.36 160 2.37 159 2.37 134 2.37
  19  0.500  0.875  0.375- 129 2.37 132 2.37 134 2.37 135 2.37
  20  0.333  0.500  0.750- 137 2.37 108 2.37 139 2.37 106 2.37
  21  0.334  0.500  0.500- 160 2.37 139 2.37 101 2.37 114 2.37
  22  0.500  0.125  0.875- 152 2.37 141 2.37 142 2.37 151 2.37
  23  0.500  0.375  0.875- 140 2.37 137 2.37 143 2.37 142 2.37
  24  0.333  0.250  0.500- 145 2.37 114 2.37 147 2.37 116 2.37
  25  0.334  0.251  0.250- 144 2.36 125 2.36 147 2.37  98 2.38
  26  0.500  0.875  0.625- 136 2.36 149 2.37 150 2.37 135 2.37
  27  0.500  0.125  0.625- 145 2.36 148 2.37 151 2.37 150 2.37
  28  0.334  0.749  1.000- 155 2.36 124 2.36 153 2.37 122 2.37
  29  0.333  0.750  0.750- 136 2.37 106 2.37 117 2.37 155 2.37
  30  0.500  0.375  0.125- 157 2.37 144 2.37 143 2.37 158 2.37
  31  0.500  0.625  0.125- 156 2.36 153 2.37 158 2.37 159 2.37
  32  0.666  0.000  0.250- 132 2.36 130 2.36 161 2.37 163 2.37
  33  0.666  0.000  0.999- 141 2.36 184 2.36 154 2.37 163 2.38
  34  0.833  0.625  0.375- 165 2.36 192 2.37 191 2.37 166 2.37
  35  0.832  0.876  0.377- 161 2.36 167 2.36 166 2.37 164 2.39
  36  0.667  0.500  0.750- 140 2.37 169 2.37 138 2.37 171 2.37
  37  0.667  0.500  0.500- 133 2.37 171 2.37 192 2.37 146 2.37
  38  0.833  0.125  0.875- 184 2.36 174 2.36 183 2.37 173 2.37
  39  0.833  0.375  0.875- 169 2.36 172 2.36 174 2.37 175 2.37
  40  0.666  0.250  0.501- 146 2.36 177 2.36 148 2.37 179 2.37
  41  0.666  0.250  0.250- 157 2.36 130 2.37 176 2.37 179 2.37
  42  0.833  0.875  0.626- 168 2.36 181 2.36 182 2.37 167 2.37
  43  0.833  0.125  0.626- 177 2.36 183 2.37 182 2.37 180 2.37
  44  0.667  0.750  1.000- 156 2.37 187 2.37 154 2.37 185 2.37
  45  0.666  0.750  0.750- 149 2.37 138 2.37 168 2.37 187 2.37
  46  0.833  0.375  0.125- 189 2.36 176 2.37 175 2.37 190 2.37
  47  0.834  0.625  0.125- 188 2.36 190 2.37 185 2.37 191 2.37
  48  0.169  0.872  0.124- 100 2.33 122 2.33 121 2.33  99 2.36
  49  0.168  0.127  0.125- 109 2.33  98 2.33 112 2.33  99 2.36
  50  1.000  0.749  0.501- 104 2.34 165 2.34 102 2.34 167 2.34
  51  0.002  0.748  0.250- 102 2.33 191 2.33 121 2.33 164 2.36
  52  0.167  0.375  0.625- 107 2.34 108 2.34 114 2.34 113 2.34
  53  0.167  0.625  0.625- 107 2.34 106 2.34 101 2.34 104 2.34
  54  1.000  0.251  0.999- 110 2.34 175 2.34 173 2.34 112 2.34
  55  1.000  0.250  0.750- 172 2.34 183 2.34 110 2.34 113 2.34
  56  0.168  0.127  0.374- 115 2.33  98 2.33 116 2.33  97 2.37
  57  0.167  0.376  0.375- 114 2.34 128 2.34 125 2.34 115 2.35
  58  0.000  0.000  0.751- 183 2.34 181 2.34 118 2.34 120 2.35
  59  0.998  1.000  0.502- 167 2.33 118 2.33 180 2.33  97 2.36
  60  0.167  0.625  0.875- 106 2.34 105 2.34 124 2.34 123 2.34
  61  0.167  0.874  0.875- 123 2.34 117 2.34 122 2.34 120 2.34
  62  1.000  0.499  0.250- 126 2.34 128 2.34 191 2.34 189 2.35
  63  0.000  0.500  0.000- 105 2.34 126 2.34 175 2.34 188 2.34
  64  0.500  0.875  0.125- 154 2.34 131 2.34 153 2.34 132 2.34
  65  0.500  0.125  0.125- 141 2.34 144 2.34 131 2.34 130 2.34
  66  0.333  0.750  0.500- 101 2.34 134 2.34 136 2.34 103 2.35
  67  0.334  0.749  0.250- 134 2.34 153 2.34 127 2.34 100 2.35
  68  0.500  0.375  0.625- 139 2.34 146 2.34 140 2.34 145 2.34
  69  0.500  0.625  0.625- 139 2.34 138 2.34 136 2.34 133 2.34
  70  0.334  0.250  1.000- 111 2.34 142 2.34 144 2.34 109 2.35
  71  0.333  0.250  0.750- 145 2.34 142 2.34 108 2.34 119 2.34
  72  0.500  0.125  0.375- 147 2.34 130 2.34 148 2.34 129 2.34
  73  0.500  0.375  0.375- 146 2.34 160 2.34 157 2.34 147 2.34
  74  0.333  0.000  0.750- 119 2.34 150 2.34 117 2.34 152 2.34
  75  0.333  1.000  0.500- 150 2.34 129 2.34 103 2.34 116 2.34
  76  0.500  0.625  0.875- 138 2.34 155 2.34 137 2.34 156 2.34
  77  0.500  0.875  0.875- 155 2.34 149 2.34 152 2.34 154 2.34
  78  0.334  0.500  0.250- 158 2.34 160 2.34 127 2.34 125 2.34
  79  0.334  0.500  0.000- 137 2.34 111 2.34 158 2.34 124 2.34
  80  0.832  0.876  0.123- 186 2.33 163 2.33 185 2.33 164 2.37
  81  0.832  0.125  0.123- 176 2.33 163 2.33 173 2.33 162 2.36
  82  0.667  0.750  0.500- 168 2.34 135 2.34 133 2.34 166 2.35
  83  0.667  0.750  0.250- 159 2.34 132 2.34 166 2.34 185 2.34
  84  0.833  0.375  0.625- 171 2.34 172 2.34 177 2.34 178 2.34
  85  0.833  0.625  0.625- 170 2.34 171 2.34 168 2.34 165 2.34
  86  0.666  0.250  1.000- 174 2.34 143 2.34 141 2.34 176 2.35
  87  0.666  0.250  0.750- 140 2.34 174 2.34 151 2.34 177 2.34
  88  0.831  0.126  0.378- 161 2.33 179 2.33 180 2.33 162 2.36
  89  0.833  0.375  0.375- 178 2.34 192 2.34 179 2.34 189 2.34
  90  0.666  0.000  0.750- 151 2.34 149 2.34 182 2.34 184 2.34
  91  0.666  1.000  0.501- 135 2.34 148 2.34 182 2.34 161 2.35
  92  0.833  0.625  0.875- 170 2.34 169 2.34 187 2.34 188 2.34
  93  0.833  0.875  0.874- 187 2.34 181 2.34 184 2.34 186 2.35
  94  0.667  0.500  0.250- 190 2.34 159 2.34 192 2.34 157 2.34
  95  0.667  0.500  0.000- 156 2.34 143 2.34 169 2.34 190 2.34
  96  1.000  0.001  0.249-  97 2.43 164 2.43  99 2.44 162 2.44
  97  0.085  0.001  0.379-  59 2.36  56 2.37   3 2.39  96 2.43
  98  0.249  0.125  0.250-  56 2.33  49 2.33  16 2.37  25 2.38
  99  0.087  0.999  0.120-  48 2.36  49 2.36   1 2.38  96 2.44
 100  0.251  0.874  0.248-  48 2.33  67 2.35   3 2.36  16 2.37
 101  0.250  0.626  0.501-  66 2.34  53 2.34   2 2.36  21 2.37
 102  0.082  0.749  0.376-  51 2.33  50 2.34   3 2.36   2 2.37
 103  0.251  0.875  0.500-  75 2.34  66 2.35   3 2.37  10 2.37
 104  0.083  0.749  0.624-  50 2.34  53 2.34  10 2.36  13 2.37
 105  0.083  0.501  0.876-  63 2.34  60 2.34   7 2.36   4 2.37
 106  0.249  0.625  0.750-  60 2.34  53 2.34  29 2.37  20 2.37
 107  0.085  0.500  0.625-  52 2.34  53 2.34   5 2.37   4 2.37
 108  0.250  0.374  0.749-  52 2.34  71 2.34   7 2.36  20 2.37
 109  0.250  0.126  0.001-  49 2.33  70 2.35   6 2.37  17 2.37
 110  0.082  0.250  0.875-  54 2.34  55 2.34   6 2.37   7 2.37
 111  0.251  0.375  0.000-  70 2.34  79 2.34  14 2.36   7 2.37
 112  0.083  0.249  0.123-  49 2.33  54 2.34   9 2.35  14 2.37
 113  0.083  0.251  0.627-  55 2.34  52 2.34   8 2.36  11 2.36
 114  0.249  0.375  0.500-  57 2.34  52 2.34  24 2.37  21 2.37
 115  0.085  0.251  0.376-  56 2.33  57 2.35   9 2.35   8 2.37
 116  0.250  0.124  0.499-  56 2.33  75 2.34  11 2.37  24 2.37
 117  0.250  0.876  0.751-  61 2.34  74 2.34  10 2.37  29 2.37
 118  0.082  1.000  0.625-  59 2.33  58 2.34  10 2.37  11 2.37
 119  0.251  0.125  0.750-  74 2.34  71 2.34   6 2.37  11 2.37
 120  0.084  0.999  0.875-  61 2.34  58 2.35   1 2.35   6 2.36
 121  0.083  0.750  0.126-  51 2.33  48 2.33  12 2.37  15 2.37
 122  0.250  0.875  0.999-  48 2.33  61 2.34  17 2.37  28 2.37
 123  0.085  0.750  0.875-  61 2.34  60 2.34  12 2.36  13 2.37
 124  0.250  0.624  0.999-  60 2.34  79 2.34  15 2.36  28 2.36
 125  0.250  0.376  0.251-  57 2.34  78 2.34  14 2.36  25 2.36
 126  0.082  0.500  0.125-  63 2.34  62 2.34  14 2.37  15 2.37
 127  0.251  0.625  0.250-  67 2.34  78 2.34   2 2.37  15 2.37
 128  0.083  0.499  0.374-  57 2.34  62 2.34   2 2.36   5 2.37
 129  0.417  0.001  0.376-  75 2.34  72 2.34  16 2.36  19 2.37
 130  0.582  0.125  0.250-  72 2.34  65 2.34  32 2.36  41 2.37
 131  0.418  1.000  0.125-  64 2.34  65 2.34  16 2.36  17 2.37
 132  0.583  0.874  0.249-  83 2.34  64 2.34  32 2.36  19 2.37
 133  0.583  0.626  0.501-  82 2.34  69 2.34  18 2.36  37 2.37
 134  0.416  0.750  0.375-  67 2.34  66 2.34  19 2.37  18 2.37
 135  0.584  0.875  0.500-  91 2.34  82 2.34  19 2.37  26 2.37
 136  0.417  0.749  0.624-  66 2.34  69 2.34  26 2.36  29 2.37
 137  0.417  0.501  0.876-  79 2.34  76 2.34  23 2.37  20 2.37
 138  0.582  0.625  0.750-  76 2.34  69 2.34  45 2.37  36 2.37
 139  0.418  0.500  0.625-  68 2.34  69 2.34  21 2.37  20 2.37
 140  0.583  0.374  0.749-  87 2.34  68 2.34  23 2.37  36 2.37
 141  0.583  0.126  0.001-  65 2.34  86 2.34  33 2.36  22 2.37
 142  0.415  0.250  0.875-  70 2.34  71 2.34  22 2.37  23 2.37
 143  0.585  0.375  0.000-  86 2.34  95 2.34  30 2.37  23 2.37
 144  0.417  0.249  0.124-  65 2.34  70 2.34  25 2.36  30 2.37
 145  0.416  0.251  0.626-  71 2.34  68 2.34  27 2.36  24 2.37
 146  0.582  0.375  0.500-  73 2.34  68 2.34  40 2.36  37 2.37
 147  0.418  0.250  0.375-  72 2.34  73 2.34  25 2.37  24 2.37
 148  0.583  0.124  0.499-  91 2.34  72 2.34  40 2.37  27 2.37
 149  0.583  0.876  0.751-  90 2.34  77 2.34  26 2.37  45 2.37
 150  0.415  0.000  0.625-  75 2.34  74 2.34  26 2.37  27 2.37
 151  0.584  0.125  0.750-  90 2.34  87 2.34  22 2.37  27 2.37
 152  0.417  0.999  0.874-  77 2.34  74 2.34  17 2.36  22 2.37
 153  0.417  0.751  0.126-  67 2.34  64 2.34  28 2.37  31 2.37
 154  0.582  0.875  1.000-  64 2.34  77 2.34  33 2.37  44 2.37
 155  0.418  0.750  0.875-  77 2.34  76 2.34  28 2.36  29 2.37
 156  0.584  0.624  0.999-  95 2.34  76 2.34  31 2.36  44 2.37
 157  0.583  0.376  0.251-  73 2.34  94 2.34  41 2.36  30 2.37
 158  0.416  0.500  0.125-  78 2.34  79 2.34  30 2.37  31 2.37
 159  0.585  0.625  0.250-  83 2.34  94 2.34  18 2.37  31 2.37
 160  0.417  0.499  0.374-  78 2.34  73 2.34  18 2.37  21 2.37
 161  0.749  0.002  0.376-  88 2.33  91 2.35  35 2.36  32 2.37
 162  0.913  0.130  0.251-  88 2.36  81 2.36   9 2.38  96 2.44
 163  0.751  0.000  0.125-  80 2.33  81 2.33  32 2.37  33 2.38
 164  0.915  0.871  0.249-  51 2.36  80 2.37  35 2.39  96 2.43
 165  0.917  0.626  0.501-  50 2.34  85 2.34  34 2.36   5 2.37
 166  0.749  0.750  0.375-  83 2.34  82 2.35  35 2.37  34 2.37
 167  0.918  0.874  0.501-  59 2.33  50 2.34  35 2.36  42 2.37
 168  0.750  0.749  0.624-  82 2.34  85 2.34  42 2.36  45 2.37
 169  0.750  0.501  0.876-  92 2.34  95 2.34  39 2.36  36 2.37
 170  0.915  0.625  0.750-  92 2.34  85 2.34  13 2.37   4 2.37
 171  0.751  0.500  0.625-  84 2.34  85 2.34  37 2.37  36 2.37
 172  0.917  0.374  0.749-  55 2.34  84 2.34  39 2.36   4 2.37
 173  0.917  0.127  0.001-  81 2.33  54 2.34   1 2.35  38 2.37
 174  0.749  0.250  0.875-  86 2.34  87 2.34  38 2.36  39 2.37
 175  0.918  0.375  1.000-  54 2.34  63 2.34  46 2.37  39 2.37
 176  0.750  0.249  0.124-  81 2.33  86 2.35  46 2.37  41 2.37
 177  0.750  0.251  0.626-  84 2.34  87 2.34  43 2.36  40 2.36
 178  0.915  0.375  0.500-  89 2.34  84 2.34   8 2.36   5 2.37
 179  0.750  0.251  0.375-  88 2.33  89 2.34  41 2.37  40 2.37
 180  0.917  0.124  0.500-  59 2.33  88 2.33   8 2.37  43 2.37
 181  0.917  0.876  0.751-  93 2.34  58 2.34  42 2.36  13 2.37
 182  0.749  0.000  0.625-  91 2.34  90 2.34  42 2.37  43 2.37
 183  0.918  0.125  0.750-  55 2.34  58 2.34  38 2.37  43 2.37
 184  0.750  0.999  0.874-  93 2.34  90 2.34  38 2.36  33 2.36
 185  0.750  0.751  0.126-  80 2.33  83 2.34  47 2.37  44 2.37
 186  0.915  0.874  0.999-  80 2.33  93 2.35   1 2.35  12 2.37
 187  0.751  0.750  0.875-  93 2.34  92 2.34  44 2.37  45 2.37
 188  0.917  0.623  0.999-  63 2.34  92 2.34  12 2.36  47 2.36
 189  0.916  0.375  0.251-  89 2.34  62 2.35   9 2.35  46 2.36
 190  0.749  0.500  0.125-  94 2.34  95 2.34  46 2.37  47 2.37
 191  0.918  0.625  0.250-  51 2.33  62 2.34  34 2.37  47 2.37
 192  0.750  0.499  0.374-  89 2.34  94 2.34  34 2.37  37 2.37
 
  LATTYP: Found a base centered orthorhombic cell.
 ALAT       =    21.4900005599
 B/A-ratio  =     1.0177756885
 C/A-ratio  =     0.7633317623
  
  Lattice vectors:
  
 A1 = (   0.0000000000,  15.3313770000,   0.0000000000)
 A2 = (   0.0000000000,  -0.2701040000, -15.3289980000)
 A3 = ( -16.4040000000,   0.0000000000,   0.0000000000)


Analysis of symmetry for initial positions (statically):
=====================================================================
 Subroutine PRICEL returns:
 Original cell was already a primitive cell.
 

 Routine SETGRP: Setting up the symmetry group for a 
 base centered orthorhombic supercell.


 Subroutine GETGRP returns: Found  1 space group operations
 (whereof  1 operations were pure point group operations)
 out of a pool of  8 trial point group operations.


The static configuration has the point symmetry C_1 .


Analysis of symmetry for dynamics (positions and initial velocities):
=====================================================================
 Subroutine PRICEL returns:
 Original cell was already a primitive cell.
 

 Routine SETGRP: Setting up the symmetry group for a 
 base centered orthorhombic supercell.


 Subroutine GETGRP returns: Found  1 space group operations
 (whereof  1 operations were pure point group operations)
 out of a pool of  8 trial point group operations.


The dynamic configuration has the point symmetry C_1 .


Analysis of structural, dynamic, and magnetic symmetry:
=====================================================================
 Subroutine PRICEL returns:
 Original cell was already a primitive cell.
 

 Routine SETGRP: Setting up the symmetry group for a 
 base centered orthorhombic supercell.


 Subroutine GETGRP returns: Found  1 space group operations
 (whereof  1 operations were pure point group operations)
 out of a pool of  8 trial point group operations.


The magnetic configuration has the point symmetry C_1 .


 Subroutine INISYM returns: Found  1 space group operations
 (whereof  1 operations are pure point group operations),
 and found     1 'primitive' translations

 
 
 KPOINTS: Generate by dasp                        

Automatic generation of k-mesh.
Space group operators:
 irot       det(A)        alpha          n_x          n_y          n_z        tau_x        tau_y        tau_z
    1     1.000000     0.000000     1.000000     0.000000     0.000000     0.000000     0.000000     0.000000
 
 Subroutine IBZKPT returns following result:
 ===========================================
 
 Found      1 irreducible k-points:
 
 Following reciprocal coordinates:
            Coordinates               Weight
  0.000000  0.000000  0.000000      1.000000
 
 Following cartesian coordinates:
            Coordinates               Weight
  0.000000  0.000000  0.000000      1.000000
 
 
 Subroutine IBZKPT_HF returns following result:
 ==============================================
 
 Found      1 k-points in 1st BZ
 the following      1 k-points will be used (e.g. in the exchange kernel)
 Following reciprocal coordinates:   # in IRBZ
  0.000000  0.000000  0.000000    1.00000000   1 t-inv F


--------------------------------------------------------------------------------------------------------




 Dimension of arrays:
   k-points           NKPTS =      1   k-points in BZ     NKDIM =      1   number of bands    NBANDS=   1136
   number of dos      NEDOS =    301   number of ions     NIONS =    192
   non local maximal  LDIM  =      6   non local SUM 2l+1 LMDIM =     18
   total plane-waves  NPLWV = ******
   max r-space proj   IRMAX =      1   max aug-charges    IRDMAX=   9247
   dimension x,y,z NGX =   108 NGY =   98 NGZ =   98
   dimension x,y,z NGXF=   216 NGYF=  196 NGZF=  196
   support grid    NGXF=   216 NGYF=  196 NGZF=  196
   ions per type =              47  49  96
   NGX,Y,Z   is equivalent  to a cutoff of  10.95, 10.63, 10.63 a.u.
   NGXF,Y,Z  is equivalent  to a cutoff of  21.89, 21.25, 21.25 a.u.

 SYSTEM =  unknown system                          
 POSCAR =  Zn47Ge49P96                             

 Startparameter for this run:
   NWRITE =      2    write-flag & timer
   PREC   = accura    normal or accurate (medium, high low for compatibility)
   ISTART =      1    job   : 0-new  1-cont  2-samecut
   ICHARG =      1    charge: 1-file 2-atom 10-const
   ISPIN  =      2    spin polarized calculation?
   LNONCOLLINEAR =      F non collinear calculations
   LSORBIT =      F    spin-orbit coupling
   INIWAV =      1    electr: 0-lowe 1-rand  2-diag
   LASPH  =      F    aspherical Exc in radial PAW
   METAGGA=      F    non-selfconsistent MetaGGA calc.

 Electronic Relaxation 1
   ENCUT  =  373.0 eV  27.41 Ry    5.24 a.u.  25.83 24.14 24.14*2*pi/ulx,y,z
   ENINI  =  373.0     initial cutoff
   ENAUG  =  575.9 eV  augmentation charge cutoff
   NELM   =    200;   NELMIN=  2; NELMDL=  0     # of ELM steps 
   EDIFF  = 0.1E-04   stopping-criterion for ELM
   LREAL  =      F    real-space projection
   NLSPLINE    = F    spline interpolate recip. space projectors
   LCOMPAT=      F    compatible to vasp.4.4
   GGA_COMPAT  = T    GGA compatible to vasp.4.4-vasp.4.6
   LMAXPAW     = -100 max onsite density
   LMAXMIX     =    2 max onsite mixed and CHGCAR
   VOSKOWN=      0    Vosko Wilk Nusair interpolation
   ROPT   =    0.00000   0.00000   0.00000
 Ionic relaxation
   EDIFFG = -.1E-01   stopping-criterion for IOM
   NSW    =      0    number of steps for IOM
   NBLOCK =      1;   KBLOCK =      1    inner block; outer block 
   IBRION =     -1    ionic relax: 0-MD 1-quasi-New 2-CG
   NFREE  =      0    steps in history (QN), initial steepest desc. (CG)
   ISIF   =      0    stress and relaxation
   IWAVPR =     10    prediction:  0-non 1-charg 2-wave 3-comb
   ISYM   =      3    0-nonsym 1-usesym 2-fastsym
   LCORR  =      T    Harris-Foulkes like correction to forces

   POTIM  = 0.5000    time-step for ionic-motion
   TEIN   =    0.0    initial temperature
   TEBEG  =    0.0;   TEEND  =   0.0 temperature during run
   SMASS  =  -3.00    Nose mass-parameter (am)
   estimated Nose-frequenzy (Omega)   =  0.10E-29 period in steps =****** mass=  -0.615E-26a.u.
   SCALEE = 1.0000    scale energy and forces
   NPACO  =    256;   APACO  = 16.0  distance and # of slots for P.C.
   PSTRESS=    0.0 pullay stress

  Mass of Ions in am
   POMASS =  65.39 72.61 30.97
  Ionic Valenz
   ZVAL   =  12.00 14.00  5.00
  Atomic Wigner-Seitz radii
   RWIGS  =  -1.00 -1.00 -1.00
  virtual crystal weights 
   VCA    =   1.00  1.00  1.00
   NELECT =    1729.0000    total number of electrons
   NUPDOWN=      -1.0000    fix difference up-down

 DOS related values:
   EMIN   =  10.00;   EMAX   =-10.00  energy-range for DOS
   EFERMI =   0.00
   ISMEAR =     0;   SIGMA  =   0.05  broadening in eV -4-tet -1-fermi 0-gaus

 Electronic relaxation 2 (details)
   IALGO  =     53    algorithm
   LDIAG  =      T    sub-space diagonalisation (order eigenvalues)
   LSUBROT=      F    optimize rotation matrix (better conditioning)
   TURBO    =      0    0=normal 1=particle mesh
   IRESTART =      0    0=no restart 2=restart with 2 vectors
   NREBOOT  =      0    no. of reboots
   NMIN     =      0    reboot dimension
   EREF     =   0.00    reference energy to select bands
   IMIX   =      4    mixing-type and parameters
     AMIX     =   0.40;   BMIX     =  1.00
     AMIX_MAG =   1.60;   BMIX_MAG =  1.00
     AMIN     =   0.10
     WC   =   100.;   INIMIX=   1;  MIXPRE=   1;  MAXMIX= -45

 Intra band minimization:
   WEIMIN = 0.0000     energy-eigenvalue tresh-hold
   EBREAK =  0.22E-08  absolut break condition
   DEPER  =   0.30     relativ break condition  

   TIME   =   0.40     timestep for ELM

  volume/ion in A,a.u.               =      20.08       135.50
  Fermi-wavevector in a.u.,A,eV,Ry     =   1.253117  2.368048 21.365256  1.570302
  Thomas-Fermi vector in A             =   2.386985
 
 Write flags
   LWAVE        =      T    write WAVECAR
   LDOWNSAMPLE  =      F    k-point downsampling of WAVECAR
   LCHARG       =      T    write CHGCAR
   LVTOT        =      F    write LOCPOT, total local potential
   LVHAR        =      T    write LOCPOT, Hartree potential only
   LELF         =      F    write electronic localiz. function (ELF)
   LORBIT       =     10    0 simple, 1 ext, 2 COOP (PROOUT), +10 PAW based schemes


 Dipole corrections
   LMONO  =      F    monopole corrections only (constant potential shift)
   LDIPOL =      F    correct potential (dipole corrections)
   IDIPOL =      0    1-x, 2-y, 3-z, 4-all directions 
   EPSILON=  1.0000000 bulk dielectric constant

 Core level calculations are selected ICORELEVEL =  1
 Exchange correlation treatment:
   GGA     =    PE    GGA type
   LEXCH   =     8    internal setting for exchange type
   VOSKOWN=      0    Vosko Wilk Nusair interpolation
   EXXOEP  =     0    0=HF, 1=EXX-LHF (local Hartree Fock) 2=EXX OEP
   LHFCALC =     T    Hartree Fock is set to
   LSYMGRAD=     F    symmetrize gradient (conserves proper symmetry)
   PRECFOCK=fast      Normal, Fast or Accurate (Low or Medium for compatibility)
   LRHFCALC=     F    long range Hartree Fock
   LRSCOR  =     F    long range correlation only (use DFT for short range part)
   LTHOMAS =     F    Thomas Fermi screening in HF
   LMODELHF=     F    short range full HF, long range fraction AEXX
   ENCUT4O =  -1.0   cutoff for four orbital integrals eV
   LMAXFOCK=     4    L truncation for augmentation on plane wave grid
   LMAXFOCKAE=  -1    L truncation for all-electron charge restoration on plane wave grid
   NMAXFOCKAE=   1    number of basis functions for all-electron charge restoration
   LFOCKAEDFT=     F  apply the AE augmentation even for DFT
   NKREDX  =     1    reduce k-point grid by
   NKREDY  =     1    reduce k-point grid by
   NKREDZ  =     1    reduce k-point grid by
   SHIFTRED=     F    shift reduced grid of Gamma
   HFKIDENT=     F    idential grid for each k-point
   ODDONLY =     F    use only odd q-grid points
   EVENONLY=     F    use only even q-grid points
   HFALPHA =   -1.0000 decay constant for conv. correction
   MCALPHA =    0.0000 extent of test-charge in conv. correction in multipole expansion
   AEXX    =    0.2700 exact exchange contribution
   HFSCREEN=    0.2000 screening length (either q_TF or 0.3 A-1)
   HFSCREENC=   0.2000 screening length for correlation (either q_TF or 0.3 A-1)
   HFRCUT  =    0.0000 spherical cutoff for potential kernel
   ALDAX   =    0.7300 LDA exchange part
   AGGAX   =    0.7300 GGA exchange part
   ALDAC   =    1.0000 LDA correlation
   AGGAC   =    1.0000 GGA correlation
   ENCUTFOCK=  -1.0 apply spherical cutoff to Coloumb kernel
   NBANDSGWLOW=     1    first orbital included in HF term
   NBLOCK_FOCK=    64    blocking factor in FOCK_ACC
 Linear response parameters
   LEPSILON=     F    determine dielectric tensor
   LRPA    =     F    only Hartree local field effects (RPA)
   LNABLA  =     F    use nabla operator in PAW spheres
   LVEL    =     F    velocity operator in full k-point grid
   LINTERFAST=   F  fast interpolation
   KINTER  =     0    interpolate to denser k-point grid
   CSHIFT  =0.1000    complex shift for real part using Kramers Kronig
   OMEGAMAX=  -1.0    maximum frequency
   DEG_THRESHOLD= 0.2000000E-02 threshold for treating states as degnerate
   RTIME   =   -0.100 relaxation time in fs
  (WPLASMAI=    0.000 imaginary part of plasma frequency in eV, 0.658/RTIME)
   DFIELD  = 0.0000000 0.0000000 0.0000000 field for delta impulse in time
 
 Orbital magnetization related:
   ORBITALMAG=     F  switch on orbital magnetization
   LCHIMAG   =     F  perturbation theory with respect to B field
   DQ        =  0.001000  dq finite difference perturbation B field
   LLRAUG    =     F  two centre corrections for induced B field



--------------------------------------------------------------------------------------------------------


 Static calculation
 charge density and potential will be updated during run
 spin polarized calculation
 Conjugate gradient for all bands (Freysoldt, et al. PRB 79, 241103 (2009))
 perform sub-space diagonalisation
    before iterative eigenvector-optimisation
 modified Broyden-mixing scheme, WC =      100.0
 initial mixing is a Kerker type mixing with AMIX =  0.4000 and BMIX =      1.0000
 Hartree-type preconditioning will be used
 using additional bands          271
 reciprocal scheme for non local part
 use partial core corrections
 no Harris-corrections to forces 
 use gradient corrections 
 use of overlap-Matrix (Vanderbilt PP)
 Gauss-broadening in eV      SIGMA  =   0.05


--------------------------------------------------------------------------------------------------------


  energy-cutoff  :      373.00
  volume of cell :     3855.18
      direct lattice vectors                 reciprocal lattice vectors
    16.404000000  0.000000000  0.000000000     0.060960741  0.000000000  0.000000000
     0.000000000 15.331377000  0.000000000     0.000000000  0.065225713 -0.001149307
     0.000000000  0.270104000 15.328998000     0.000000000  0.000000000  0.065235836

  length of vectors
    16.404000000 15.331377000 15.331377494     0.060960741  0.065235838  0.065235836


 
 old parameters found on file WAVECAR:
  energy-cutoff  :      373.00
  volume of cell :     3855.18
      direct lattice vectors                 reciprocal lattice vectors
    16.404000000  0.000000000  0.000000000     0.060960741  0.000000000  0.000000000
     0.000000000 15.331377000  0.000000000     0.000000000  0.065225713 -0.001149307
     0.000000000  0.270104000 15.328998000     0.000000000  0.000000000  0.065235836

  length of vectors

 
 k-points in units of 2pi/SCALE and weight: Generate by dasp                        
   0.00000000  0.00000000  0.00000000       1.000
 
 k-points in reciprocal lattice and weights: Generate by dasp                        
   0.00000000  0.00000000  0.00000000       1.000
 
 position of ions in fractional coordinates (direct lattice) 
   0.99763968  0.00007649  0.99740626
   0.16725384  0.62394331  0.37535185
   0.16775098  0.87297322  0.37379477
   0.99999834  0.49968904  0.75030765
   0.00020546  0.50015859  0.49998508
   0.16667721  0.12501707  0.87481279
   0.16689549  0.37538251  0.87486973
   0.00007686  0.25032832  0.50097929
   0.00235789  0.25258967  0.24991993
   0.16660950  0.87452391  0.62513466
   0.16631237  0.12540007  0.62483853
   0.99992060  0.74901745  0.99966783
   0.99979165  0.75001154  0.74983913
   0.16723278  0.37527211  0.12523710
   0.16713037  0.62409694  0.12460390
   0.33436543  0.99954438  0.24990279
   0.33364767  0.00018501  0.99960880
   0.50021975  0.62466536  0.37516489
   0.49999871  0.87513791  0.37485817
   0.33344364  0.49983232  0.75030101
   0.33361497  0.50015363  0.49985738
   0.49988976  0.12471409  0.87515816
   0.49999886  0.37526711  0.87472888
   0.33326483  0.25000584  0.50022935
   0.33392743  0.25067914  0.24970877
   0.49977795  0.87483280  0.62533038
   0.49969100  0.12532855  0.62497808
   0.33402542  0.74903567  0.99987646
   0.33329318  0.75019147  0.74964579
   0.50010756  0.37483761  0.12528209
   0.50030653  0.62501787  0.12466843
   0.66563195  0.00009472  0.25045161
   0.66606950  0.00028814  0.99931647
   0.83338788  0.62486165  0.37547228
   0.83224677  0.87620235  0.37702269
   0.66655314  0.49969593  0.75016507
   0.66670385  0.50035087  0.49980549
   0.83276435  0.12475972  0.87472298
   0.83310221  0.37512700  0.87461355
   0.66597159  0.25012099  0.50096044
   0.66634953  0.25038819  0.24981092
   0.83274361  0.87464493  0.62605229
   0.83286703  0.12539275  0.62589846
   0.66673243  0.74976780  0.99999119
   0.66638240  0.75013983  0.74984283
   0.83332005  0.37518394  0.12497872
   0.83368486  0.62515794  0.12459707
   0.16866743  0.87215735  0.12441159
   0.16802899  0.12682262  0.12481494
   0.99999885  0.74947846  0.50051898
   0.00179013  0.74755892  0.25042807
   0.16670603  0.37537010  0.62512277
   0.16679667  0.62463212  0.62525989
   0.99999859  0.25073986  0.99925622
   0.99978680  0.24998954  0.75027771
   0.16789445  0.12724448  0.37418328
   0.16717816  0.37555781  0.37541545
   0.00026694  0.00010657  0.75052044
   0.99820719  0.99956967  0.50243730
   0.16679295  0.62491495  0.87478565
   0.16656396  0.87449874  0.87501991
   0.99973031  0.49947525  0.24988956
   0.00021057  0.49971837  0.00000717
   0.50009075  0.87501712  0.12470631
   0.49999847  0.12497439  0.12502148
   0.33331911  0.74999581  0.49968883
   0.33400412  0.74898973  0.25007252
   0.49985239  0.37525644  0.62493727
   0.49999878  0.62491821  0.62507935
   0.33364719  0.25040024  0.99966032
   0.33327174  0.24992429  0.75010626
   0.49990664  0.12528995  0.37497940
   0.50007103  0.37493072  0.37518434
   0.33317034  0.00015874  0.74971872
   0.33336988  0.99967855  0.49990253
   0.50014468  0.62505948  0.87474096
   0.49992586  0.87481244  0.87506551
   0.33366854  0.50001020  0.24982663
   0.33353068  0.49977581  0.00018325
   0.83210304  0.87581334  0.12275082
   0.83196798  0.12518163  0.12317255
   0.66667864  0.75030744  0.50000033
   0.66662768  0.75009406  0.25031799
   0.83320386  0.37521096  0.62508077
   0.83320034  0.62473672  0.62536428
   0.66635002  0.25033595  0.99959545
   0.66646675  0.24981286  0.75022020
   0.83132915  0.12558570  0.37783762
   0.83343381  0.37497681  0.37549791
   0.66632880  0.00017006  0.74998533
   0.66599342  0.99992448  0.50100626
   0.83329119  0.62487400  0.87462667
   0.83281900  0.87458159  0.87443819
   0.66682683  0.50027720  0.24983837
   0.66672579  0.49989047  0.00007211
   0.99999860  0.00104567  0.24895074
   0.08461378  0.00099814  0.37914129
   0.24944521  0.12471269  0.24960265
   0.08725567  0.99932825  0.11979040
   0.25093070  0.87356150  0.24845889
   0.25010061  0.62603318  0.50131699
   0.08228648  0.74929836  0.37565679
   0.25094376  0.87515718  0.49975063
   0.08346055  0.74862327  0.62404422
   0.08340870  0.50110556  0.87612784
   0.24879212  0.62501386  0.75002844
   0.08459228  0.50002498  0.62516942
   0.25006348  0.37385954  0.74891966
   0.25017443  0.12607552  0.00065523
   0.08218903  0.25013206  0.87485442
   0.25146286  0.37501105  0.00006132
   0.08344464  0.24917731  0.12328240
   0.08338976  0.25140391  0.62655146
   0.24875990  0.37506765  0.50030453
   0.08476057  0.25056504  0.37568217
   0.24975213  0.12350804  0.49879063
   0.24984233  0.87625028  0.75109489
   0.08218633  0.99980898  0.62522555
   0.25123318  0.12501292  0.74974516
   0.08382617  0.99890999  0.87471993
   0.08334702  0.75030616  0.12570759
   0.24954347  0.87457930  0.99921293
   0.08463398  0.74973664  0.87491499
   0.25014939  0.62368034  0.99866935
   0.25013818  0.37612431  0.25134728
   0.08187732  0.49962253  0.12505308
   0.25137053  0.62472744  0.24993175
   0.08322163  0.49871678  0.37383834
   0.41676991  0.00121372  0.37616902
   0.58177017  0.12535586  0.25003815
   0.41822688  0.99995789  0.12464088
   0.58322786  0.87382779  0.24878228
   0.58342504  0.62636519  0.50109187
   0.41555473  0.74987576  0.37499306
   0.58444350  0.87500365  0.50012050
   0.41657259  0.74890553  0.62363137
   0.41673758  0.50118972  0.87627390
   0.58206190  0.62490245  0.74987242
   0.41793554  0.50012539  0.62509503
   0.58325988  0.37372232  0.74880645
   0.58320287  0.12628159  0.00114369
   0.41547791  0.24996017  0.87478257
   0.58451939  0.37521377  0.00003597
   0.41679394  0.24885245  0.12371494
   0.41645894  0.25122661  0.62619040
   0.58186439  0.37530699  0.50007997
   0.41793029  0.25004634  0.37511035
   0.58304187  0.12392971  0.49898107
   0.58321419  0.87620560  0.75117585
   0.41514727  0.00003165  0.62484352
   0.58446202  0.12498064  0.75002486
   0.41661413  0.99876714  0.87357693
   0.41695582  0.75101512  0.12606729
   0.58206685  0.87488647  0.99994964
   0.41813222  0.74991691  0.87468994
   0.58353850  0.62380606  0.99877044
   0.58338278  0.37641935  0.25122939
   0.41553534  0.49997120  0.12501555
   0.58485031  0.62515301  0.24996479
   0.41678287  0.49882025  0.37379124
   0.74906683  0.00153780  0.37643476
   0.91274128  0.13020613  0.25066666
   0.75055181  0.00039394  0.12528320
   0.91538339  0.87085478  0.24899777
   0.91653689  0.62595308  0.50137336
   0.74905424  0.75024545  0.37483909
   0.91771112  0.87434079  0.50069763
   0.74989618  0.74867941  0.62396360
   0.74993437  0.50107681  0.87613708
   0.91540497  0.62482726  0.74997134
   0.75120498  0.49996802  0.62498385
   0.91658831  0.37386869  0.74889013
   0.91655257  0.12671372  0.00081803
   0.74853449  0.24993518  0.87498493
   0.91780822  0.37514192  0.99986395
   0.74982257  0.24934094  0.12392030
   0.74984785  0.25132722  0.62631556
   0.91536369  0.37508205  0.50025962
   0.75045378  0.25078463  0.37541674
   0.91664968  0.12428965  0.49968872
   0.91677534  0.87615823  0.75127926
   0.74862709  0.00006474  0.62526864
   0.91812009  0.12494343  0.75037303
   0.74985935  0.99864966  0.87387182
   0.75024548  0.75120605  0.12648835
   0.91523685  0.87431446  0.99943065
   0.75123731  0.74969241  0.87492914
   0.91660764  0.62344509  0.99859287
   0.91617140  0.37527615  0.25108671
   0.74876420  0.50025087  0.12498358
   0.91781151  0.62477108  0.25018744
   0.75015483  0.49890164  0.37374650
 
 position of ions in cartesian coordinates  (Angst):
  16.36528125  0.27057604 15.28923849
   2.74363200  9.66729411  5.75376771
   2.75178715 13.48484501  5.72989929
  16.40397283  7.86358211 11.50146443
   0.00337043  7.80316792  7.66427035
   2.73417301  2.15297430 13.41000355
   2.73775366  5.99143656 13.41087636
   0.00126080  3.97319431  7.67951058
   0.03867877  3.94005176  3.83102208
   2.73306216 13.57650720  9.58268794
   2.72818819  2.09132706  9.57814853
  16.40269759 11.75348322 15.32390622
  16.40058230 11.70124421 11.49428256
   2.74328651  5.78726531  1.91975932
   2.74160654  9.60192143  1.91005286
   5.48493056 15.39189140  3.83075943
   5.47315642  0.27283479 15.32300123
   8.20560484  9.67831363  5.75090186
   8.20197880 13.51831997  5.74620018
   5.46980952  7.86577705 11.50136273
   5.47261993  7.80305726  7.66231285
   8.20019167  2.14842252 13.41529764
   8.20198122  5.98962931 13.40871730
   5.46687629  3.96804779  7.66801470
   5.47774552  3.91070380  3.82778526
   8.19835746 13.58129569  9.58568814
   8.19693121  2.09026837  9.58028779
   5.47935294 11.75381894 15.32710420
   5.46734136 11.70395064 11.49131877
   8.20376437  5.78061590  1.92044886
   8.20702835  9.61605811  1.91104211
  10.91902649  0.06910017  3.83917218
  10.92620410  0.27433699 15.31852018
  13.67089480  9.68140604  5.75561378
  13.65217597 13.53522386  5.77938011
  10.93413765  7.86364935 11.49927892
  10.93660990  7.80606732  7.66151736
  13.66066644  2.14900445 13.40862674
  13.66620858  5.98745005 13.40694938
  10.92459794  3.97001067  7.67922161
  10.93079761  3.90627071  3.82935112
  13.66032614 13.57861035  9.59675427
  13.66235074  2.09150114  9.59439628
  10.93707873 11.76507442 15.32886292
  10.93133687 11.70321215 11.49433930
  13.66978208  5.78584364  1.91579854
  13.67576644  9.61818630  1.90994819
   2.76682058 13.40497721  1.90710502
   2.75634763  1.97807836  1.91328790
  16.40398119 11.62572902  7.67245439
   0.02936528 11.52874929  3.83881146
   2.73464571  5.92378868  9.58250565
   2.73613259  9.74535576  9.58460755
  16.40397691  4.11409041 15.31759661
  16.40050267  4.03533683 11.50100545
   2.75414050  2.05190145  5.73585479
   2.74239057  5.85921965  5.75474267
   0.00437881  0.20435243 11.50472635
  16.37459082 15.46048975  7.70186039
   2.73607158  9.81708972 13.40958742
   2.73231522 13.64361632 13.41317843
  16.39957607  7.72513960  3.83055654
   0.00345419  7.66137263  0.00010985
   8.20348871 13.44890106  1.91162277
   8.20197496  1.94979831  1.91645401
   5.46776669 11.63343652  7.65972913
   5.47900354 11.55058956  3.83336118
   8.19957869  5.92199605  9.57966213
   8.20198002  9.74969311  9.58184011
   5.47314847  4.10899279 15.32379101
   5.46698962  4.03429025 11.49837732
   8.20046860  2.02215093  5.74805843
   8.20316526  5.84954306  5.75119996
   5.46532625  0.20493574 11.49243677
   5.46859945 15.46147443  7.66300488
   8.20437325  9.81929355 13.40890245
   8.20078386 13.64843798 13.41387744
   5.47349869  7.73332399  3.82959185
   5.47123723  7.66230088  0.00280911
  13.64981828 13.46058005  1.88164709
  13.64760282  1.95247619  1.88811175
  10.93619648 11.63829836  7.66450400
  10.93536049 11.56758672  3.83712403
  13.66787612  5.92133743  9.58186186
  13.66781833  9.74698755  9.58620785
  10.93080568  4.10798960 15.32279659
  10.93272060  4.03261269 11.50012398
  13.63712340  2.02745714  5.79187217
  13.67164814  5.85033432  5.75600678
  10.93045760  0.20518130 11.49652368
  10.92495604 15.46554305  7.67992396
  13.66930873  9.81641898 13.40715040
  13.66156292 13.64472926 13.40426131
  10.93862731  7.73742068  3.82977180
  10.93696991  7.66402872  0.00110534
  16.40397703  0.08327417  3.81616537
   1.38800444  0.11771050  5.81185612
   4.09189923  1.97943591  3.82615846
   1.43134197 15.35343394  1.83626678
   4.11626714 13.46001048  3.80862587
   4.10265046  9.73335843  7.68468707
   1.34982742 11.58924198  5.75844215
   4.11648139 13.55234926  7.66067644
   1.36908687 11.64598245  9.56597265
   1.36823627  7.91928389 13.43016188
   4.08118589  9.78490879 11.49718443
   1.38765178  7.83493228  9.58322079
   4.10204133  5.93406781 11.48018800
   4.10386127  1.93308828  0.01004401
   1.34822888  4.07117058 13.41064161
   4.12499675  5.74945240  0.00093990
   1.36882590  3.85353031  1.88979573
   1.36792561  4.02360211  9.60440613
   4.08065735  5.88543777  7.66916719
   1.39041240  3.94298030  5.75883125
   4.09693397  2.02827368  7.64596051
   4.09841363 13.63699716 11.51353209
   1.34818457 15.49732429  9.58408123
   4.12122908  2.11912945 11.49284204
   1.37508457 15.55093097 13.40858010
   1.36722453 11.53718068  1.92697137
   4.09351113 13.67839644 15.31693293
   1.38833580 11.73081316 13.41157017
   4.10345062  9.83162299 15.30860047
   4.10326670  5.83439352  3.85290191
   1.34311562  7.69367864  1.91693845
   4.12348215  9.64543943  3.83120335
   1.36516770  7.74699021  5.73056719
   6.83669362  0.12021280  5.76629410
   9.54335783  1.98941426  3.83283433
   6.86059374 15.36439746  1.91061985
   9.56726988 13.46418042  3.81358301
   9.57050438  9.73838778  7.68123624
   6.81675987 11.59791514  5.74826793
   9.58721117 13.55009537  7.66634608
   6.83345672 11.65019834  9.55964398
   6.83616322  7.92061367 13.43240080
   9.54814334  9.78315862 11.49479282
   6.85581466  7.83645154  9.58208052
   9.56779507  5.93193332 11.47845261
   9.56685990  1.93637965  0.01753163
   6.81549958  4.06851592 13.40954027
   9.58845605  5.75255352  0.00055141
   6.83708784  3.84866660  1.89642605
   6.83159241  4.02078642  9.59887136
   9.54490346  5.88904656  7.66572481
   6.85572841  3.93487348  5.75006587
   9.56421889  2.03478983  7.64887987
   9.56704556 13.63633402 11.51477307
   6.81007575  0.16925794  9.57822501
   9.58751490  2.11870998 11.49712953
   6.83413826 15.54843218 13.39105901
   6.83974325 11.54814715  1.93248521
   9.54822454 13.68330463 15.32822608
   6.85904096 11.73351612 13.40812028
   9.57236555  9.83357780 15.31015010
   9.56981116  5.83888497  3.85109476
   6.81644173  7.69901411  1.91636308
   9.59388457  9.65197290  3.83170974
   6.83690623  7.74856376  5.72984511
  12.28769234  0.12525308  5.77036761
  14.97260797  2.06394534  3.84246873
  12.31205189  0.03987907  1.92046592
  15.01594905 13.41865829  3.81688633
  15.03487107  9.73214554  7.68555124
  12.28748579 11.60354142  5.74590762
  15.05413319 13.54008876  7.67519291
  12.30129697 11.64682140  9.56473679
  12.30192342  7.91884566 13.43030358
  15.01630317  9.78203247 11.49630911
  12.32276650  7.83400891  9.58037615
  15.03571457  5.93420007 11.47973523
  15.03512828  1.94291684  0.01253964
  12.27895974  4.06818737 13.41264225
  15.05572601  6.02150951 15.32691255
  12.30008946  3.85621132  1.89957399
  12.30050417  4.02236272  9.60079003
  15.01562602  5.88564647  7.66847865
  12.31044388  3.94627528  5.75476242
  15.03672132  2.04049936  7.65972738
  15.03878264 13.63563567 11.51635833
  12.28047881  0.16988011  9.58474181
  15.06084193  2.11823359 11.50246662
  12.30069283 15.54671073 13.39557936
  12.30702690 11.55118815  1.93893961
  15.01354529 13.67439485 15.32027051
  12.32329683 11.73013886 13.41178704
  15.03603174  9.82799569 15.30742817
  15.02887566  5.82131970  3.84890770
  12.28272791  7.70329320  1.91587298
  15.05578004  9.64617756  3.83512273
  12.30553984  7.74979955  5.72915940
 


--------------------------------------------------------------------------------------------------------


 use parallel FFT for orbitals z direction half grid
 k-point  1 :   0.0000 0.0000 0.0000  plane waves:   31525

 maximum and minimum number of plane-waves per node :      3949     3935

 maximum number of plane-waves:     31525
 maximum index in each direction: 
   IXMAX=   25   IYMAX=   24   IZMAX=   24
   IXMIN=  -25   IYMIN=  -24   IZMIN=    0


 parallel 3D FFT for wavefunctions:
    minimum data exchange during FFTs selected (reduces bandwidth)
 parallel 3D FFT for charge:
    minimum data exchange during FFTs selected (reduces bandwidth)


 FFT grid for exact exchange (Hartree Fock) 
  NGX = 54; NGY = 50; NGZ = 50

 use parallel FFT for orbitals z direction half grid
 
 Radii for the augmentation spheres in the non-local exchange
 for species   1 augmentation radius   1.230 (default was   0.952)
       energy cutoff for augmentation   1492.0
 for species   2 augmentation radius   1.227 (default was   0.991)
       energy cutoff for augmentation   1492.0
 for species   3 augmentation radius   1.022 (default was   0.959)
       energy cutoff for augmentation   1492.0

 real space projection operators:
  total allocation   :       6051.41 KBytes
  max/ min on nodes  :        935.09        558.27

 Maximum index for augmentation-charges in exchange           52
  SETUP_FOCK is finished

 total amount of memory used by VASP MPI-rank0    96918. kBytes
=======================================================================

   base      :      30000. kBytes
   nonl-proj :      13847. kBytes
   fftplans  :       5975. kBytes
   grid      :      17618. kBytes
   one-center:        373. kBytes
   HF        :        194. kBytes
   nonlr-proj:        885. kBytes
   wavefun   :      28026. kBytes
 
     INWAV:  cpu time    3.9196: real time    4.9054
 Broyden mixing: mesh for mixing (old mesh)
   NGX = 51   NGY = 49   NGZ = 49
  (NGX  =216   NGY  =196   NGZ  =196)
  gives a total of 122451 points

 initial charge density was supplied:
 number of electron    1729.0000407 magnetization       0.9292324
 charge density for first step will be calculated from the start-wavefunctions


--------------------------------------------------------------------------------------------------------


 Maximum index for augmentation-charges          507 (set IRDMAX)


--------------------------------------------------------------------------------------------------------


 initial charge from wavefunction
 First call to EWALD:  gamma=   0.113
 Maximum number of real-space cells 3x 3x 3
 Maximum number of reciprocal cells 3x 3x 3

    FEWALD:  cpu time    0.0063: real time    0.0063


--------------------------------------- Iteration      1(   1)  ---------------------------------------


    POTLOK:  cpu time    0.5607: real time    0.5616
    SETDIJ:  cpu time    0.2015: real time    0.2018
    TRIAL :  cpu time  119.4594: real time  140.2313
    CORREC:  cpu time    0.0009: real time    0.0011
    CHARGE:  cpu time    0.3080: real time    0.3178
    --------------------------------------------
      LOOP:  cpu time  120.5451: real time  141.3331

 eigenvalue-minimisations  :     0
 total energy-change (2. order) :-0.1131901E+04  (-0.1490373E+02)
 number of electron    1729.0000409 magnetization       0.9875144
 augmentation part      753.3672670 magnetization      -0.1628096

 Free energy of the ion-electron system (eV)
  ---------------------------------------------------
  alpha Z        PSCENC =      6939.29392558
  Ewald energy   TEWEN  =   -126937.01040541
  -Hartree energ DENC   =    -71961.64608989
  -exchange      EXHF   =      4586.39799269
  -V(xc)+E(xc)   XCENC  =      4875.50391958
  PAW double counting   =    152873.97452229  -179983.19557953
  entropy T*S    EENTRO =        -0.00124530
  eigenvalues    EBANDS =    -17398.03283691
  atomic energy  EATOM  =    225872.81875723
  ---------------------------------------------------
  free energy    TOTEN  =     -1131.90131683 eV

  energy without entropy =    -1131.90007153  energy(sigma->0) =    -1131.90069418
  exchange ACFDT corr.  =        -0.01112749  see jH, gK, PRB 81, 115126


--------------------------------------------------------------------------------------------------------




--------------------------------------- Iteration      1(   2)  ---------------------------------------


    POTLOK:  cpu time    0.5348: real time    0.5360
    SETDIJ:  cpu time    0.2024: real time    0.2027
    TRIAL :  cpu time  130.5101: real time  143.2465
    CORREC:  cpu time    0.0010: real time    0.0011
    CHARGE:  cpu time    0.3081: real time    0.3153
    --------------------------------------------
      LOOP:  cpu time  131.5585: real time  144.3140

 eigenvalue-minimisations  :     0
 total energy-change (2. order) :-0.4741284E+01  (-0.7742520E+01)
 number of electron    1729.0000409 magnetization       0.9994385
 augmentation part      752.9482667 magnetization      -0.1653356

 Free energy of the ion-electron system (eV)
  ---------------------------------------------------
  alpha Z        PSCENC =      6939.29392558
  Ewald energy   TEWEN  =   -126937.01040541
  -Hartree energ DENC   =    -72562.56833143
  -exchange      EXHF   =      4604.00822339
  -V(xc)+E(xc)   XCENC  =      4895.20425928
  PAW double counting   =    153751.43327453  -181400.76474784
  entropy T*S    EENTRO =        -0.00007353
  eigenvalues    EBANDS =    -16299.05631065
  atomic energy  EATOM  =    225872.81875723
  ---------------------------------------------------
  free energy    TOTEN  =     -1136.64260062 eV

  energy without entropy =    -1136.64252709  energy(sigma->0) =    -1136.64256385
  exchange ACFDT corr.  =        -0.00206132  see jH, gK, PRB 81, 115126


--------------------------------------------------------------------------------------------------------




--------------------------------------- Iteration      1(   3)  ---------------------------------------


    POTLOK:  cpu time    0.5322: real time    0.5322
    SETDIJ:  cpu time    0.2022: real time    0.2024
    TRIAL :  cpu time  132.8993: real time  144.1130
    CORREC:  cpu time    0.0009: real time    0.0010
    CHARGE:  cpu time    0.3065: real time    0.3184
    --------------------------------------------
      LOOP:  cpu time  133.9434: real time  145.1757

 eigenvalue-minimisations  :     0
 total energy-change (2. order) :-0.4086644E+01  (-0.1318550E+01)
 number of electron    1729.0000409 magnetization       0.9999893
 augmentation part      753.1012045 magnetization      -0.1666130

 Free energy of the ion-electron system (eV)
  ---------------------------------------------------
  alpha Z        PSCENC =      6939.29392558
  Ewald energy   TEWEN  =   -126937.01040541
  -Hartree energ DENC   =    -72200.17492426
  -exchange      EXHF   =      4600.11686724
  -V(xc)+E(xc)   XCENC  =      4885.81246214
  PAW double counting   =    153482.62856470  -180847.84955666
  entropy T*S    EENTRO =        -0.00000175
  eigenvalues    EBANDS =    -16936.36486160
  atomic energy  EATOM  =    225872.81875723
  ---------------------------------------------------
  free energy    TOTEN  =     -1140.72924457 eV

  energy without entropy =    -1140.72924283  energy(sigma->0) =    -1140.72924370
  exchange ACFDT corr.  =        -0.00009586  see jH, gK, PRB 81, 115126


--------------------------------------------------------------------------------------------------------




--------------------------------------- Iteration      1(   4)  ---------------------------------------


    POTLOK:  cpu time    0.5316: real time    0.5316
    SETDIJ:  cpu time    0.2015: real time    0.2019
    TRIAL :  cpu time  132.8764: real time  144.1086
    CORREC:  cpu time    0.0008: real time    0.0009
    CHARGE:  cpu time    0.2900: real time    0.3153
    --------------------------------------------
      LOOP:  cpu time  133.9031: real time  145.1677

 eigenvalue-minimisations  :     0
 total energy-change (2. order) :-0.6234906E+00  (-0.1088343E+01)
 number of electron    1729.0000409 magnetization       0.9999999
 augmentation part      754.6084575 magnetization      -0.1674458

 Free energy of the ion-electron system (eV)
  ---------------------------------------------------
  alpha Z        PSCENC =      6939.29392558
  Ewald energy   TEWEN  =   -126937.01040541
  -Hartree energ DENC   =    -72080.86621619
  -exchange      EXHF   =      4599.87354089
  -V(xc)+E(xc)   XCENC  =      4882.98106646
  PAW double counting   =    153437.48411676  -180745.22676793
  entropy T*S    EENTRO =        -0.00000003
  eigenvalues    EBANDS =    -17110.70075077
  atomic energy  EATOM  =    225872.81875723
  ---------------------------------------------------
  free energy    TOTEN  =     -1141.35273513 eV

  energy without entropy =    -1141.35273510  energy(sigma->0) =    -1141.35273511
  exchange ACFDT corr.  =        -0.00000187  see jH, gK, PRB 81, 115126


--------------------------------------------------------------------------------------------------------




--------------------------------------- Iteration      1(   5)  ---------------------------------------


    POTLOK:  cpu time    0.5322: real time    0.5324
    SETDIJ:  cpu time    0.2030: real time    0.2032
    TRIAL :  cpu time  133.0505: real time  144.2196
    CORREC:  cpu time    0.0007: real time    0.0009
    CHARGE:  cpu time    0.2993: real time    0.3089
    --------------------------------------------
      LOOP:  cpu time  134.0880: real time  145.2733

 eigenvalue-minimisations  :     0
 total energy-change (2. order) :-0.5121838E+00  (-0.2915570E+00)
 number of electron    1729.0000409 magnetization       1.0000000
 augmentation part      754.6264276 magnetization      -0.1680424

 Free energy of the ion-electron system (eV)
  ---------------------------------------------------
  alpha Z        PSCENC =      6939.29392558
  Ewald energy   TEWEN  =   -126937.01040541
  -Hartree energ DENC   =    -72248.42937255
  -exchange      EXHF   =      4605.19880587
  -V(xc)+E(xc)   XCENC  =      4888.52410798
  PAW double counting   =    153663.09879799  -181092.98551765
  entropy T*S    EENTRO =        -0.00000000
  eigenvalues    EBANDS =    -16832.37401793
  atomic energy  EATOM  =    225872.81875723
  ---------------------------------------------------
  free energy    TOTEN  =     -1141.86491892 eV

  energy without entropy =    -1141.86491892  energy(sigma->0) =    -1141.86491892
  exchange ACFDT corr.  =        -0.00000003  see jH, gK, PRB 81, 115126


--------------------------------------------------------------------------------------------------------




--------------------------------------- Iteration      1(   6)  ---------------------------------------


    POTLOK:  cpu time    0.5324: real time    0.5325
    SETDIJ:  cpu time    0.2027: real time    0.2031
    TRIAL :  cpu time  132.8594: real time  144.0013
    CORREC:  cpu time    0.0007: real time    0.0009
    CHARGE:  cpu time    0.2902: real time    0.3168
    --------------------------------------------
      LOOP:  cpu time  133.8876: real time  145.0638

 eigenvalue-minimisations  :     0
 total energy-change (2. order) :-0.2041431E+00  (-0.1761983E+00)
 number of electron    1729.0000409 magnetization       1.0000000
 augmentation part      754.2014756 magnetization      -0.1684812

 Free energy of the ion-electron system (eV)
  ---------------------------------------------------
  alpha Z        PSCENC =      6939.29392558
  Ewald energy   TEWEN  =   -126937.01040541
  -Hartree energ DENC   =    -72254.74609965
  -exchange      EXHF   =      4606.06123611
  -V(xc)+E(xc)   XCENC  =      4888.93881090
  PAW double counting   =    153649.67547175  -181061.25634952
  entropy T*S    EENTRO =        -0.00000000
  eigenvalues    EBANDS =    -16845.84440905
  atomic energy  EATOM  =    225872.81875723
  ---------------------------------------------------
  free energy    TOTEN  =     -1142.06906206 eV

  energy without entropy =    -1142.06906206  energy(sigma->0) =    -1142.06906206
  exchange ACFDT corr.  =        -0.00000000  see jH, gK, PRB 81, 115126


--------------------------------------------------------------------------------------------------------




--------------------------------------- Iteration      1(   7)  ---------------------------------------


    POTLOK:  cpu time    0.5306: real time    0.5308
    SETDIJ:  cpu time    0.2031: real time    0.2033
    TRIAL :  cpu time  133.2327: real time  144.4298
    CORREC:  cpu time    0.0006: real time    0.0008
    CHARGE:  cpu time    0.3120: real time    0.3218
    --------------------------------------------
      LOOP:  cpu time  134.2811: real time  145.4951

 eigenvalue-minimisations  :     0
 total energy-change (2. order) :-0.8212247E-01  (-0.9100755E-01)
 number of electron    1729.0000409 magnetization       1.0000000
 augmentation part      754.4970526 magnetization      -0.1686871

 Free energy of the ion-electron system (eV)
  ---------------------------------------------------
  alpha Z        PSCENC =      6939.29392558
  Ewald energy   TEWEN  =   -126937.01040541
  -Hartree energ DENC   =    -72205.72680409
  -exchange      EXHF   =      4605.04970605
  -V(xc)+E(xc)   XCENC  =      4887.46147569
  PAW double counting   =    153558.09298755  -180929.18434123
  entropy T*S    EENTRO =        -0.00000000
  eigenvalues    EBANDS =    -16932.94648590
  atomic energy  EATOM  =    225872.81875723
  ---------------------------------------------------
  free energy    TOTEN  =     -1142.15118452 eV

  energy without entropy =    -1142.15118452  energy(sigma->0) =    -1142.15118452
  exchange ACFDT corr.  =        -0.00000000  see jH, gK, PRB 81, 115126


--------------------------------------------------------------------------------------------------------




--------------------------------------- Iteration      1(   8)  ---------------------------------------


    POTLOK:  cpu time    0.5312: real time    0.5313
    SETDIJ:  cpu time    0.2018: real time    0.2022
    TRIAL :  cpu time  132.4209: real time  143.8051
    CORREC:  cpu time    0.0006: real time    0.0008
    CHARGE:  cpu time    0.3141: real time    0.3211
    --------------------------------------------
      LOOP:  cpu time  133.4708: real time  144.8696

 eigenvalue-minimisations  :     0
 total energy-change (2. order) :-0.5351710E-01  (-0.1908703E-01)
 number of electron    1729.0000409 magnetization       1.0000000
 augmentation part      754.5814359 magnetization      -0.1687902

 Free energy of the ion-electron system (eV)
  ---------------------------------------------------
  alpha Z        PSCENC =      6939.29392558
  Ewald energy   TEWEN  =   -126937.01040541
  -Hartree energ DENC   =    -72246.63282128
  -exchange      EXHF   =      4606.06011044
  -V(xc)+E(xc)   XCENC  =      4888.70553106
  PAW double counting   =    153586.07247153  -180986.33035700
  entropy T*S    EENTRO =        -0.00000000
  eigenvalues    EBANDS =    -16865.18191377
  atomic energy  EATOM  =    225872.81875723
  ---------------------------------------------------
  free energy    TOTEN  =     -1142.20470162 eV

  energy without entropy =    -1142.20470162  energy(sigma->0) =    -1142.20470162
  exchange ACFDT corr.  =        -0.00000000  see jH, gK, PRB 81, 115126


--------------------------------------------------------------------------------------------------------




--------------------------------------- Iteration      1(   9)  ---------------------------------------


    POTLOK:  cpu time    0.5317: real time    0.5317
    SETDIJ:  cpu time    0.2027: real time    0.2029
    TRIAL :  cpu time  132.7240: real time  144.0417
    CORREC:  cpu time    0.0007: real time    0.0008
    CHARGE:  cpu time    0.3087: real time    0.3201
    --------------------------------------------
      LOOP:  cpu time  133.7712: real time  145.1071

 eigenvalue-minimisations  :     0
 total energy-change (2. order) :-0.1319450E-01  (-0.1564842E-01)
 number of electron    1729.0000409 magnetization       1.0000000
 augmentation part      754.4719122 magnetization      -0.1687208

 Free energy of the ion-electron system (eV)
  ---------------------------------------------------
  alpha Z        PSCENC =      6939.29392558
  Ewald energy   TEWEN  =   -126937.01040541
  -Hartree energ DENC   =    -72254.53752920
  -exchange      EXHF   =      4606.35676294
  -V(xc)+E(xc)   XCENC  =      4888.95974522
  PAW double counting   =    153587.58249779  -180990.62280443
  entropy T*S    EENTRO =        -0.00000000
  eigenvalues    EBANDS =    -16855.05884584
  atomic energy  EATOM  =    225872.81875723
  ---------------------------------------------------
  free energy    TOTEN  =     -1142.21789612 eV

  energy without entropy =    -1142.21789612  energy(sigma->0) =    -1142.21789612
  exchange ACFDT corr.  =        -0.00000000  see jH, gK, PRB 81, 115126


--------------------------------------------------------------------------------------------------------




--------------------------------------- Iteration      1(  10)  ---------------------------------------


    POTLOK:  cpu time    0.5321: real time    0.5320
    SETDIJ:  cpu time    0.2010: real time    0.2015
    TRIAL :  cpu time  133.1132: real time  144.2206
    CORREC:  cpu time    0.0006: real time    0.0008
    CHARGE:  cpu time    0.3117: real time    0.3208
    --------------------------------------------
      LOOP:  cpu time  134.1633: real time  145.2888

 eigenvalue-minimisations  :     0
 total energy-change (2. order) :-0.6488885E-02  (-0.7713183E-02)
 number of electron    1729.0000409 magnetization       1.0000000
 augmentation part      754.5881247 magnetization      -0.1687484

 Free energy of the ion-electron system (eV)
  ---------------------------------------------------
  alpha Z        PSCENC =      6939.29392558
  Ewald energy   TEWEN  =   -126937.01040541
  -Hartree energ DENC   =    -72235.17513300
  -exchange      EXHF   =      4606.01215183
  -V(xc)+E(xc)   XCENC  =      4888.37808231
  PAW double counting   =    153564.64031292  -180954.10912262
  entropy T*S    EENTRO =        -0.00000000
  eigenvalues    EBANDS =    -16887.07295385
  atomic energy  EATOM  =    225872.81875723
  ---------------------------------------------------
  free energy    TOTEN  =     -1142.22438500 eV

  energy without entropy =    -1142.22438500  energy(sigma->0) =    -1142.22438500
  exchange ACFDT corr.  =        -0.00000000  see jH, gK, PRB 81, 115126


--------------------------------------------------------------------------------------------------------




--------------------------------------- Iteration      1(  11)  ---------------------------------------


    POTLOK:  cpu time    0.5312: real time    0.5314
    SETDIJ:  cpu time    0.2018: real time    0.2020
    TRIAL :  cpu time  133.0510: real time  144.2226
    CORREC:  cpu time    0.0006: real time    0.0008
    CHARGE:  cpu time    0.3110: real time    0.3188
    --------------------------------------------
      LOOP:  cpu time  134.0990: real time  145.2863

 eigenvalue-minimisations  :     0
 total energy-change (2. order) :-0.4434270E-02  (-0.1510117E-02)
 number of electron    1729.0000409 magnetization       1.0000000
 augmentation part      754.6105055 magnetization      -0.1686966

 Free energy of the ion-electron system (eV)
  ---------------------------------------------------
  alpha Z        PSCENC =      6939.29392558
  Ewald energy   TEWEN  =   -126937.01040541
  -Hartree energ DENC   =    -72246.85677350
  -exchange      EXHF   =      4606.38127316
  -V(xc)+E(xc)   XCENC  =      4888.75227436
  PAW double counting   =    153580.83665176  -180979.39877364
  entropy T*S    EENTRO =        -0.00000000
  eigenvalues    EBANDS =    -16867.04574880
  atomic energy  EATOM  =    225872.81875723
  ---------------------------------------------------
  free energy    TOTEN  =     -1142.22881927 eV

  energy without entropy =    -1142.22881927  energy(sigma->0) =    -1142.22881927
  exchange ACFDT corr.  =         0.00000000  see jH, gK, PRB 81, 115126


--------------------------------------------------------------------------------------------------------




--------------------------------------- Iteration      1(  12)  ---------------------------------------


    POTLOK:  cpu time    0.5313: real time    0.5315
    SETDIJ:  cpu time    0.2031: real time    0.2033
    TRIAL :  cpu time  133.0429: real time  144.2177
    CORREC:  cpu time    0.0006: real time    0.0008
    CHARGE:  cpu time    0.3077: real time    0.3154
    --------------------------------------------
      LOOP:  cpu time  134.0875: real time  145.2771

 eigenvalue-minimisations  :     0
 total energy-change (2. order) :-0.1148365E-02  (-0.1074032E-02)
 number of electron    1729.0000409 magnetization       1.0000000
 augmentation part      754.5842854 magnetization      -0.1685869

 Free energy of the ion-electron system (eV)
  ---------------------------------------------------
  alpha Z        PSCENC =      6939.29392558
  Ewald energy   TEWEN  =   -126937.01040541
  -Hartree energ DENC   =    -72247.34208238
  -exchange      EXHF   =      4606.45829481
  -V(xc)+E(xc)   XCENC  =      4888.78056568
  PAW double counting   =    153583.07399085  -180981.68242640
  entropy T*S    EENTRO =        -0.00000000
  eigenvalues    EBANDS =    -16866.62058760
  atomic energy  EATOM  =    225872.81875723
  ---------------------------------------------------
  free energy    TOTEN  =     -1142.22996764 eV

  energy without entropy =    -1142.22996764  energy(sigma->0) =    -1142.22996764
  exchange ACFDT corr.  =         0.00000000  see jH, gK, PRB 81, 115126


--------------------------------------------------------------------------------------------------------




--------------------------------------- Iteration      1(  13)  ---------------------------------------


    POTLOK:  cpu time    0.5316: real time    0.5316
    SETDIJ:  cpu time    0.2016: real time    0.2018
    TRIAL :  cpu time  133.3840: real time  144.2691
    CORREC:  cpu time    0.0006: real time    0.0008
    CHARGE:  cpu time    0.3082: real time    0.3161
    --------------------------------------------
      LOOP:  cpu time  134.4311: real time  145.3316

 eigenvalue-minimisations  :     0
 total energy-change (2. order) :-0.4170019E-03  (-0.7477704E-03)
 number of electron    1729.0000409 magnetization       1.0000000
 augmentation part      754.6241752 magnetization      -0.1685221

 Free energy of the ion-electron system (eV)
  ---------------------------------------------------
  alpha Z        PSCENC =      6939.29392558
  Ewald energy   TEWEN  =   -126937.01040541
  -Hartree energ DENC   =    -72242.36525875
  -exchange      EXHF   =      4606.37354883
  -V(xc)+E(xc)   XCENC  =      4888.63545168
  PAW double counting   =    153577.36639046  -180972.38830842
  entropy T*S    EENTRO =        -0.00000000
  eigenvalues    EBANDS =    -16874.95448583
  atomic energy  EATOM  =    225872.81875723
  ---------------------------------------------------
  free energy    TOTEN  =     -1142.23038464 eV

  energy without entropy =    -1142.23038464  energy(sigma->0) =    -1142.23038464
  exchange ACFDT corr.  =         0.00000000  see jH, gK, PRB 81, 115126


--------------------------------------------------------------------------------------------------------




--------------------------------------- Iteration      1(  14)  ---------------------------------------


    POTLOK:  cpu time    0.5329: real time    0.5334
    SETDIJ:  cpu time    0.2020: real time    0.2022
    TRIAL :  cpu time  133.1155: real time  144.1987
    CORREC:  cpu time    0.0006: real time    0.0008
    CHARGE:  cpu time    0.3090: real time    0.3200
    --------------------------------------------
      LOOP:  cpu time  134.1629: real time  145.2714

 eigenvalue-minimisations  :     0
 total energy-change (2. order) :-0.3539172E-03  (-0.2055142E-03)
 number of electron    1729.0000409 magnetization       1.0000000
 augmentation part      754.6161476 magnetization      -0.1684412

 Free energy of the ion-electron system (eV)
  ---------------------------------------------------
  alpha Z        PSCENC =      6939.29392558
  Ewald energy   TEWEN  =   -126937.01040541
  -Hartree energ DENC   =    -72246.76102958
  -exchange      EXHF   =      4606.49600057
  -V(xc)+E(xc)   XCENC  =      4888.77704331
  PAW double counting   =    153582.05449715  -180980.19590139
  entropy T*S    EENTRO =        -0.00000000
  eigenvalues    EBANDS =    -16867.70362601
  atomic energy  EATOM  =    225872.81875723
  ---------------------------------------------------
  free energy    TOTEN  =     -1142.23073856 eV

  energy without entropy =    -1142.23073856  energy(sigma->0) =    -1142.23073856
  exchange ACFDT corr.  =         0.00000000  see jH, gK, PRB 81, 115126


--------------------------------------------------------------------------------------------------------




--------------------------------------- Iteration      1(  15)  ---------------------------------------


    POTLOK:  cpu time    0.5327: real time    0.5329
    SETDIJ:  cpu time    0.2021: real time    0.2023
    TRIAL :  cpu time  133.6550: real time  144.7740
    CORREC:  cpu time    0.0006: real time    0.0008
    CHARGE:  cpu time    0.3075: real time    0.3157
    --------------------------------------------
      LOOP:  cpu time  134.7044: real time  145.8388

 eigenvalue-minimisations  :     0
 total energy-change (2. order) :-0.1234318E-03  (-0.5212662E-04)
 number of electron    1729.0000409 magnetization       1.0000000
 augmentation part      754.6177840 magnetization      -0.1683855

 Free energy of the ion-electron system (eV)
  ---------------------------------------------------
  alpha Z        PSCENC =      6939.29392558
  Ewald energy   TEWEN  =   -126937.01040541
  -Hartree energ DENC   =    -72245.18458482
  -exchange      EXHF   =      4606.46882157
  -V(xc)+E(xc)   XCENC  =      4888.73198084
  PAW double counting   =    153579.64244853  -180976.58001341
  entropy T*S    EENTRO =        -0.00000000
  eigenvalues    EBANDS =    -16870.41179210
  atomic energy  EATOM  =    225872.81875723
  ---------------------------------------------------
  free energy    TOTEN  =     -1142.23086199 eV

  energy without entropy =    -1142.23086199  energy(sigma->0) =    -1142.23086199
  exchange ACFDT corr.  =         0.00000000  see jH, gK, PRB 81, 115126


--------------------------------------------------------------------------------------------------------




--------------------------------------- Iteration      1(  16)  ---------------------------------------


    POTLOK:  cpu time    0.5313: real time    0.5314
    SETDIJ:  cpu time    0.2025: real time    0.2033
    TRIAL :  cpu time  133.3218: real time  144.2836
    CORREC:  cpu time    0.0006: real time    0.0008
    CHARGE:  cpu time    0.2924: real time    0.3202
[...]
     15.03878     13.63564     11.51636         0.006279      0.220436      0.213655
     12.28048      0.16988      9.58474        -0.309026     -0.001313      0.003484
     15.06084      2.11823     11.50247         0.314486     -0.001516     -0.003455
     12.30069     15.54671     13.39558         0.003127     -0.219024     -0.221382
     12.30703     11.55119      1.93894        -0.002050      0.221534      0.214139
     15.01355     13.67439     15.32027        -0.314766      0.005331      0.003264
     12.32330     11.73014     13.41179         0.307359      0.004036     -0.008482
     15.03603      9.82800     15.30743         0.003372     -0.210900     -0.209584
     15.02888      5.82132      3.84891         0.019723      0.235582      0.214816
     12.28273      7.70329      1.91587        -0.307885     -0.003828      0.005243
     15.05578      9.64618      3.83512         0.319933     -0.006634     -0.003651
     12.30554      7.74980      5.72916         0.001438     -0.222145     -0.217807
 -----------------------------------------------------------------------------------
    total drift:                                0.001992     -0.012645     -0.001333


--------------------------------------------------------------------------------------------------------



  FREE ENERGIE OF THE ION-ELECTRON SYSTEM (eV)
  ---------------------------------------------------
  free  energy   TOTEN  =     -1142.23093330 eV

  energy  without entropy=    -1142.23093330  energy(sigma->0) =    -1142.23093330
 


--------------------------------------------------------------------------------------------------------


    POTLOK:  cpu time    0.7083: real time    0.7087


--------------------------------------------------------------------------------------------------------


 writing wavefunctions
     LOOP+:  cpu time 2732.5689: real time 2967.0211
    4ORBIT:  cpu time    0.0000: real time    0.0000
 


 total charge     
 
# of ion       s       p       d       tot
------------------------------------------
    1        0.542   0.557   9.791  10.890
    2        0.540   0.551   9.791  10.882
    3        0.540   0.550   9.791  10.880
    4        0.540   0.551   9.791  10.882
    5        0.540   0.550   9.791  10.881
    6        0.540   0.552   9.791  10.883
    7        0.540   0.551   9.791  10.881
    8        0.540   0.551   9.791  10.882
    9        0.542   0.557   9.791  10.890
   10        0.540   0.551   9.791  10.882
   11        0.539   0.550   9.791  10.881
   12        0.540   0.551   9.791  10.882
   13        0.540   0.551   9.791  10.881
   14        0.540   0.551   9.791  10.882
   15        0.540   0.551   9.791  10.881
   16        0.540   0.552   9.791  10.883
   17        0.540   0.551   9.791  10.882
   18        0.540   0.550   9.791  10.881
   19        0.540   0.550   9.791  10.881
   20        0.540   0.550   9.791  10.881
   21        0.540   0.550   9.791  10.881
   22        0.540   0.551   9.791  10.882
   23        0.540   0.550   9.791  10.881
   24        0.540   0.549   9.791  10.879
   25        0.540   0.550   9.791  10.881
   26        0.540   0.550   9.791  10.881
   27        0.540   0.550   9.791  10.881
   28        0.541   0.552   9.791  10.883
   29        0.539   0.550   9.791  10.880
   30        0.540   0.551   9.791  10.882
   31        0.540   0.550   9.791  10.881
   32        0.540   0.552   9.791  10.883
   33        0.540   0.550   9.791  10.881
   34        0.540   0.551   9.791  10.882
   35        0.540   0.550   9.791  10.880
   36        0.540   0.550   9.791  10.881
   37        0.539   0.550   9.791  10.880
   38        0.540   0.551   9.791  10.882
   39        0.540   0.551   9.791  10.881
   40        0.541   0.552   9.791  10.883
   41        0.540   0.551   9.791  10.882
   42        0.540   0.551   9.791  10.882
   43        0.540   0.551   9.791  10.881
   44        0.540   0.549   9.791  10.879
   45        0.540   0.551   9.791  10.881
   46        0.540   0.552   9.791  10.883
   47        0.539   0.550   9.791  10.881
   48        1.093   1.244  10.073  12.410
   49        1.092   1.245  10.072  12.410
   50        1.091   1.248  10.072  12.411
   51        1.095   1.244  10.073  12.412
   52        1.091   1.248  10.072  12.412
   53        1.091   1.248  10.072  12.412
   54        1.091   1.248  10.072  12.412
   55        1.091   1.248  10.072  12.412
   56        1.093   1.243  10.072  12.408
   57        1.091   1.249  10.072  12.412
   58        1.097   1.241  10.071  12.409
   59        1.095   1.244  10.073  12.412
   60        1.091   1.248  10.072  12.412
   61        1.091   1.248  10.072  12.411
   62        1.097   1.241  10.071  12.409
   63        1.091   1.248  10.072  12.412
   64        1.091   1.248  10.072  12.412
   65        1.091   1.249  10.072  12.413
   66        1.092   1.245  10.071  12.409
   67        1.091   1.248  10.072  12.412
   68        1.092   1.247  10.072  12.411
   69        1.092   1.246  10.072  12.410
   70        1.093   1.246  10.072  12.411
   71        1.091   1.248  10.072  12.412
   72        1.091   1.248  10.072  12.412
   73        1.091   1.248  10.072  12.411
   74        1.091   1.248  10.072  12.411
   75        1.091   1.248  10.072  12.412
   76        1.092   1.247  10.072  12.411
   77        1.091   1.248  10.072  12.411
   78        1.091   1.248  10.072  12.411
   79        1.091   1.248  10.072  12.412
   80        1.093   1.243  10.072  12.408
   81        1.092   1.245  10.072  12.410
   82        1.092   1.245  10.071  12.409
   83        1.091   1.248  10.072  12.412
   84        1.091   1.248  10.072  12.412
   85        1.091   1.248  10.072  12.412
   86        1.093   1.246  10.072  12.411
   87        1.091   1.248  10.072  12.412
   88        1.093   1.244  10.073  12.410
   89        1.091   1.248  10.072  12.411
   90        1.091   1.248  10.072  12.411
   91        1.091   1.248  10.072  12.412
   92        1.091   1.248  10.072  12.412
   93        1.091   1.249  10.072  12.412
   94        1.091   1.248  10.072  12.411
   95        1.091   1.248  10.072  12.412
   96        1.237   1.065  10.037  12.338
   97        1.031   1.483   0.000   2.514
   98        1.023   1.514   0.000   2.537
   99        1.033   1.482   0.000   2.515
  100        1.021   1.519   0.000   2.539
  101        1.020   1.518   0.000   2.538
  102        1.021   1.518   0.000   2.539
  103        1.021   1.515   0.000   2.536
  104        1.021   1.517   0.000   2.538
  105        1.021   1.518   0.000   2.538
  106        1.021   1.517   0.000   2.538
  107        1.021   1.517   0.000   2.538
  108        1.021   1.518   0.000   2.538
  109        1.023   1.513   0.000   2.536
  110        1.021   1.516   0.000   2.538
  111        1.021   1.517   0.000   2.538
  112        1.021   1.519   0.000   2.539
  113        1.020   1.519   0.000   2.539
  114        1.021   1.517   0.000   2.538
  115        1.021   1.518   0.000   2.539
  116        1.023   1.513   0.000   2.535
  117        1.021   1.517   0.000   2.537
  118        1.025   1.511   0.000   2.536
  119        1.020   1.517   0.000   2.537
  120        1.022   1.515   0.000   2.537
  121        1.022   1.515   0.000   2.538
  122        1.024   1.513   0.000   2.536
  123        1.021   1.517   0.000   2.538
  124        1.020   1.518   0.000   2.538
  125        1.020   1.518   0.000   2.538
  126        1.020   1.517   0.000   2.538
  127        1.021   1.517   0.000   2.538
  128        1.021   1.518   0.000   2.538
  129        1.020   1.518   0.000   2.539
  130        1.020   1.519   0.000   2.539
  131        1.020   1.518   0.000   2.539
  132        1.020   1.518   0.000   2.539
  133        1.021   1.517   0.000   2.538
  134        1.021   1.516   0.000   2.537
  135        1.021   1.516   0.000   2.537
  136        1.021   1.517   0.000   2.538
  137        1.021   1.517   0.000   2.538
  138        1.021   1.517   0.000   2.538
  139        1.021   1.517   0.000   2.538
  140        1.021   1.518   0.000   2.538
  141        1.020   1.518   0.000   2.538
  142        1.021   1.516   0.000   2.538
  143        1.021   1.516   0.000   2.537
  144        1.020   1.518   0.000   2.538
  145        1.021   1.518   0.000   2.538
  146        1.021   1.517   0.000   2.538
  147        1.021   1.517   0.000   2.538
  148        1.021   1.517   0.000   2.538
  149        1.021   1.518   0.000   2.538
  150        1.021   1.516   0.000   2.537
  151        1.021   1.517   0.000   2.538
  152        1.020   1.517   0.000   2.538
  153        1.021   1.517   0.000   2.538
  154        1.021   1.517   0.000   2.538
  155        1.021   1.517   0.000   2.538
  156        1.021   1.517   0.000   2.538
  157        1.020   1.517   0.000   2.538
  158        1.021   1.517   0.000   2.538
  159        1.021   1.516   0.000   2.537
  160        1.021   1.518   0.000   2.538
  161        1.020   1.519   0.000   2.539
  162        1.033   1.482   0.000   2.515
  163        1.023   1.514   0.000   2.537
  164        1.031   1.484   0.000   2.514
  165        1.021   1.517   0.000   2.538
  166        1.021   1.515   0.000   2.536
  167        1.021   1.518   0.000   2.539
  168        1.020   1.518   0.000   2.538
  169        1.021   1.518   0.000   2.538
  170        1.021   1.517   0.000   2.538
  171        1.021   1.517   0.000   2.538
  172        1.021   1.518   0.000   2.538
  173        1.021   1.519   0.000   2.539
  174        1.021   1.517   0.000   2.538
  175        1.021   1.516   0.000   2.537
  176        1.023   1.513   0.000   2.537
  177        1.020   1.518   0.000   2.539
  178        1.021   1.517   0.000   2.538
  179        1.024   1.513   0.000   2.536
  180        1.022   1.515   0.000   2.538
  181        1.021   1.518   0.000   2.538
  182        1.021   1.517   0.000   2.538
  183        1.020   1.517   0.000   2.538
  184        1.020   1.518   0.000   2.538
  185        1.023   1.513   0.000   2.536
  186        1.021   1.518   0.000   2.539
  187        1.021   1.517   0.000   2.538
  188        1.020   1.519   0.000   2.539
  189        1.022   1.515   0.000   2.537
  190        1.020   1.517   0.000   2.537
  191        1.025   1.511   0.000   2.536
  192        1.021   1.517   0.000   2.537
--------------------------------------------------
tot        177.089 232.284 953.6721363.046
 


 magnetization (x)
 
# of ion       s       p       d       tot
------------------------------------------
    1       -0.000  -0.000   0.002   0.002
    2       -0.000  -0.000   0.000  -0.000
    3       -0.001  -0.001   0.001  -0.000
    4        0.000  -0.000   0.000   0.000
    5       -0.000  -0.000   0.000  -0.000
    6       -0.000  -0.000   0.000  -0.000
    7        0.000   0.000   0.000   0.000
    8       -0.000   0.000   0.000   0.000
    9       -0.000  -0.000   0.002   0.002
   10       -0.000  -0.000   0.000  -0.000
   11       -0.000  -0.000   0.000  -0.000
   12       -0.000   0.000   0.000   0.000
   13       -0.000  -0.000   0.000  -0.000
   14       -0.000  -0.000   0.000  -0.000
   15       -0.000  -0.000   0.000  -0.000
   16       -0.000   0.000   0.000   0.000
   17       -0.000  -0.000   0.000  -0.000
   18        0.000  -0.000   0.000   0.000
   19        0.000  -0.000  -0.000   0.000
   20        0.000   0.000   0.000   0.000
   21       -0.000  -0.000   0.000  -0.000
   22        0.000  -0.000   0.000   0.000
   23        0.001   0.000   0.000   0.001
   24        0.001   0.001   0.000   0.003
   25       -0.000  -0.000   0.000  -0.000
   26        0.000  -0.000   0.000   0.000
   27       -0.000  -0.000   0.000  -0.000
   28        0.002   0.002   0.000   0.004
   29       -0.000  -0.000   0.000  -0.000
   30        0.000  -0.000   0.000   0.000
   31       -0.000  -0.000   0.000  -0.000
   32       -0.000   0.000   0.000   0.000
   33       -0.000  -0.000   0.000  -0.000
   34       -0.000  -0.000   0.000  -0.000
   35       -0.001  -0.001   0.001  -0.000
   36        0.000   0.000   0.000   0.000
   37       -0.000  -0.000   0.000  -0.000
   38       -0.000  -0.000   0.000  -0.000
   39        0.000   0.000   0.000   0.000
   40        0.002   0.002   0.000   0.004
   41       -0.000  -0.000   0.000  -0.000
   42       -0.000  -0.000   0.000  -0.000
   43       -0.000  -0.000   0.000  -0.000
   44        0.001   0.001   0.000   0.003
   45       -0.000  -0.000   0.000  -0.000
   46       -0.000  -0.000   0.000  -0.000
   47       -0.000  -0.000   0.000  -0.000
   48        0.000  -0.001   0.002   0.001
   49       -0.001  -0.002   0.002  -0.001
   50       -0.000   0.000   0.000   0.000
   51        0.003   0.001   0.003   0.006
   52        0.000   0.000   0.000   0.000
   53        0.000   0.000  -0.000   0.000
   54       -0.000  -0.000   0.000  -0.000
   55        0.000  -0.000   0.000  -0.000
   56       -0.000  -0.002   0.001  -0.001
   57       -0.000  -0.000   0.000   0.000
   58        0.007   0.003   0.000   0.011
   59        0.003   0.001   0.003   0.006
   60        0.000   0.000   0.000   0.000
   61       -0.000  -0.001   0.000  -0.001
   62        0.007   0.003   0.000   0.011
   63        0.000  -0.000   0.000  -0.000
   64        0.000  -0.000   0.000   0.000
   65        0.000  -0.000   0.000   0.000
   66        0.001   0.001   0.000   0.002
   67       -0.000  -0.000   0.000  -0.000
   68        0.001   0.000   0.000   0.002
   69        0.001   0.000   0.000   0.001
   70        0.003   0.002   0.000   0.005
   71       -0.000  -0.000   0.000  -0.000
   72        0.000  -0.000   0.000   0.000
   73        0.000  -0.000   0.000  -0.000
   74        0.000   0.000  -0.000   0.000
   75       -0.000  -0.000  -0.000  -0.000
   76        0.001   0.000   0.000   0.002
   77        0.000  -0.000   0.000  -0.000
   78       -0.000  -0.000   0.000  -0.000
   79        0.000   0.000   0.000   0.000
   80       -0.000  -0.002   0.001  -0.001
   81       -0.001  -0.002   0.002  -0.001
   82        0.001   0.001   0.000   0.002
   83       -0.000  -0.000  -0.000  -0.000
   84        0.000   0.000   0.000   0.000
   85        0.000   0.000  -0.000   0.000
   86        0.003   0.002   0.000   0.005
   87        0.000   0.000   0.000   0.000
   88        0.000  -0.001   0.002   0.001
   89       -0.000  -0.001   0.000  -0.001
   90       -0.000  -0.000   0.000  -0.000
   91       -0.000  -0.000   0.000  -0.000
   92        0.000   0.000   0.000   0.000
   93       -0.000  -0.000   0.000   0.000
   94        0.000   0.000  -0.000   0.000
   95       -0.000  -0.000   0.000  -0.000
   96        0.161  -0.019   0.000   0.142
   97        0.012   0.041   0.000   0.054
   98       -0.000  -0.001   0.000  -0.001
   99        0.015   0.052   0.000   0.067
  100       -0.000  -0.000   0.000  -0.000
  101        0.000  -0.000   0.000  -0.000
  102        0.000  -0.001   0.000  -0.001
  103        0.001   0.001   0.000   0.002
  104        0.000  -0.000   0.000  -0.000
  105       -0.000  -0.000   0.000  -0.000
  106        0.000   0.000   0.000   0.000
  107       -0.000  -0.000   0.000  -0.000
  108        0.000   0.000   0.000   0.000
  109        0.002   0.001   0.000   0.004
  110        0.000   0.000   0.000   0.000
  111        0.000   0.000   0.000   0.000
  112        0.000  -0.000   0.000  -0.000
  113        0.000  -0.000   0.000   0.000
  114        0.000  -0.000   0.000  -0.000
  115        0.000  -0.000   0.000  -0.000
  116        0.001   0.003   0.000   0.004
  117        0.000  -0.000   0.000  -0.000
  118        0.004   0.004   0.000   0.008
  119        0.000  -0.000   0.000   0.000
  120        0.002   0.002   0.000   0.004
  121       -0.000  -0.001   0.000  -0.001
  122        0.002   0.007   0.000   0.009
  123       -0.000  -0.000   0.000  -0.000
  124        0.000  -0.000   0.000   0.000
  125       -0.000   0.000   0.000   0.000
  126       -0.000   0.000   0.000   0.000
  127        0.000   0.000   0.000   0.000
  128        0.000   0.001   0.000   0.001
  129       -0.000  -0.000   0.000  -0.000
  130       -0.000  -0.000   0.000  -0.000
  131       -0.000  -0.000   0.000  -0.000
  132       -0.000  -0.000   0.000  -0.000
  133        0.000   0.001   0.000   0.001
  134       -0.000   0.000   0.000   0.000
  135       -0.000   0.000   0.000   0.000
  136        0.000   0.001   0.000   0.001
  137        0.000   0.001   0.000   0.001
  138        0.000   0.001   0.000   0.001
  139        0.000   0.001   0.000   0.001
  140        0.000   0.001   0.000   0.001
  141        0.000   0.000   0.000   0.000
  142        0.000   0.002   0.000   0.002
  143        0.000   0.002   0.000   0.002
  144        0.000   0.000   0.000   0.000
  145        0.000   0.000   0.000   0.001
  146        0.001   0.000   0.000   0.001
  147        0.000  -0.000   0.000  -0.000
  148       -0.000  -0.000   0.000  -0.000
  149        0.000   0.000   0.000   0.000
  150        0.000  -0.000   0.000   0.000
  151        0.000   0.000   0.000   0.000
  152        0.000   0.000   0.000   0.000
  153       -0.000  -0.000   0.000  -0.000
  154        0.000  -0.000   0.000  -0.000
  155        0.001   0.000   0.000   0.001
  156        0.000   0.000   0.000   0.001
  157        0.000   0.000   0.000   0.000
  158        0.000   0.000   0.000   0.000
  159        0.000  -0.000   0.000   0.000
  160        0.000   0.000   0.000   0.000
  161       -0.000  -0.000   0.000  -0.000
  162        0.015   0.052   0.000   0.067
  163       -0.000  -0.001   0.000  -0.001
  164        0.012   0.041   0.000   0.054
  165        0.000  -0.000   0.000  -0.000
  166        0.001   0.001   0.000   0.002
  167        0.000  -0.001   0.000  -0.001
  168        0.000  -0.000   0.000  -0.000
  169        0.000   0.000   0.000   0.000
  170       -0.000  -0.000   0.000  -0.000
  171        0.000   0.000   0.000   0.000
  172       -0.000  -0.000   0.000  -0.000
  173        0.000  -0.000   0.000  -0.000
  174        0.000   0.000   0.000   0.000
  175        0.000   0.000   0.000   0.000
  176        0.002   0.001   0.000   0.004
  177        0.000  -0.000   0.000   0.000
  178       -0.000  -0.000   0.000  -0.000
  179        0.002   0.007   0.000   0.009
  180       -0.000  -0.001   0.000  -0.001
  181        0.000   0.001   0.000   0.001
  182        0.000   0.000   0.000   0.000
  183       -0.000   0.000   0.000   0.000
  184       -0.000   0.000   0.000   0.000
  185        0.001   0.003   0.000   0.004
  186        0.000  -0.000   0.000  -0.000
  187        0.000  -0.000   0.000  -0.000
  188        0.000  -0.000   0.000   0.000
  189        0.002   0.002   0.000   0.004
  190        0.000  -0.000   0.000   0.000
  191        0.004   0.004   0.000   0.008
  192        0.000  -0.000   0.000  -0.000
--------------------------------------------------
tot          0.285   0.214   0.027   0.526
 

 total amount of memory used by VASP MPI-rank0    96918. kBytes
=======================================================================

   base      :      30000. kBytes
   nonl-proj :      13847. kBytes
   fftplans  :       5975. kBytes
   grid      :      17618. kBytes
   one-center:        373. kBytes
   HF        :        194. kBytes
   nonlr-proj:        885. kBytes
   wavefun   :      28026. kBytes
 
  
  
 General timing and accounting informations for this job:
 ========================================================
  
                  Total CPU time used (sec):     2784.124
                            User time (sec):     2726.049
                          System time (sec):       58.075
                         Elapsed time (sec):     3027.669
  
                   Maximum memory used (kb):      350700.
                   Average memory used (kb):           0.
  
                          Minor page faults:       801659
                          Major page faults:           12
                 Voluntary context switches:      2862251
