 running on  128 total cores
 distrk:  each k-point on  128 cores,    1 groups
 distr:  one band on    8 cores,   16 groups
 using from now: INCAR     
 vasp.5.4.4.18Apr17-6-g9f103f2a35 (build Mar 26 2021 15:05:33) gamma-only       
  
 POSCAR found type information on POSCAR  Zn Ge P 
 POSCAR found :  3 types and     192 ions
 scaLAPACK will be used

 ----------------------------------------------------------------------------- 
|                                                                             |
|  ADVICE TO THIS USER RUNNING 'VASP/VAMP'   (HEAR YOUR MASTER'S VOICE ...):  |
|                                                                             |
|      You have a (more or less) 'large supercell' and for larger cells       |
|      it might be more efficient to use real space projection operators      |
|      So try LREAL= Auto  in the INCAR   file.                               |
|      Mind: If you want to do a very accurate calculations keep the          |
|      reciprocal projection scheme          (i.e. LREAL=.FALSE.)             |
|                                                                             |
 ----------------------------------------------------------------------------- 

 LDA part: xc-table for Pade appr. of Perdew
 found WAVECAR, reading the header
 POSCAR, INCAR and KPOINTS ok, starting setup
 FFT: planning ...
 reading WAVECAR
 the WAVECAR file was read successfully
 charge-density read from file: unknown                                 
 magnetization density read from file 1
 initial charge from wavefunction
 entering main loop
       N       E                     dE             d eps       ncg     rms          ort
 gam= 0.000 g(H,U,f)=  0.333E+02 0.389E+01 0.407E-01 ort(H,U,f) = 0.000E+00 0.000E+00 0.000E+00
SDA:   1    -0.113190131683E+04   -0.11319E+04   -0.14904E+02  1136   0.373E+02 0.000E+00
 gam= 0.382 g(H,U,f)=  0.228E+02 0.156E+01 0.887E-02 ort(H,U,f) =-0.149E+02 0.173E+01 0.916E-02
DMP:   2    -0.113664260062E+04   -0.47413E+01   -0.77425E+01  1136   0.244E+02-0.131E+02
 gam= 0.382 g(H,U,f)=  0.205E+01 0.826E+00 0.384E-03 ort(H,U,f) =-0.400E+00 0.151E+01 0.638E-03
DMP:   3    -0.114072924457E+04   -0.40866E+01   -0.13185E+01  1136   0.287E+01 0.111E+01
 gam= 0.382 g(H,U,f)=  0.221E+01 0.568E+00 0.580E-05 ort(H,U,f) =-0.120E+01 0.105E+01 0.121E-04
DMP:   4    -0.114135273513E+04   -0.62349E+00   -0.10883E+01  1136   0.278E+01-0.156E+00
 gam= 0.382 g(H,U,f)=  0.586E+00 0.198E+00 0.634E-07 ort(H,U,f) =-0.685E+00 0.541E+00 0.148E-06
DMP:   5    -0.114186491892E+04   -0.51218E+00   -0.29156E+00  1136   0.784E+00-0.144E+00
 gam= 0.382 g(H,U,f)=  0.245E+00 0.826E-01 0.809E-09 ort(H,U,f) = 0.529E-01 0.243E+00 0.205E-08
DMP:   6    -0.114206906206E+04   -0.20414E+00   -0.17620E+00  1136   0.328E+00 0.296E+00
 gam= 0.382 g(H,U,f)=  0.193E+00 0.454E-01 0.157E-10 ort(H,U,f) =-0.153E+00 0.124E+00 0.425E-10
DMP:   7    -0.114215118452E+04   -0.82122E-01   -0.91008E-01  1136   0.239E+00-0.288E-01
 gam= 0.382 g(H,U,f)=  0.158E-01 0.167E-01 0.528E-12 ort(H,U,f) =-0.153E-01 0.550E-01 0.148E-11
DMP:   8    -0.114220470162E+04   -0.53517E-01   -0.19087E-01  1136   0.325E-01 0.398E-01
 gam= 0.382 g(H,U,f)=  0.248E-01 0.723E-02 0.619E-14 ort(H,U,f) =-0.467E-02 0.231E-01 0.177E-13
DMP:   9    -0.114221789612E+04   -0.13195E-01   -0.15648E-01  1136   0.321E-01 0.185E-01
 gam= 0.382 g(H,U,f)=  0.181E-01 0.351E-02 0.166E-15 ort(H,U,f) =-0.171E-01 0.110E-01 0.486E-15
DMP:  10    -0.114222438500E+04   -0.64889E-02   -0.77132E-02  1136   0.216E-01-0.614E-02
 gam= 0.382 g(H,U,f)=  0.134E-02 0.136E-02 0.455E-18 ort(H,U,f) =-0.184E-02 0.465E-02 0.134E-17
DMP:  11    -0.114222881927E+04   -0.44343E-02   -0.15101E-02  1136   0.270E-02 0.281E-02
 gam= 0.382 g(H,U,f)=  0.129E-02 0.605E-03 0.160E-18 ort(H,U,f) = 0.421E-04 0.202E-02 0.473E-18
DMP:  12    -0.114222996764E+04   -0.11484E-02   -0.10740E-02  1136   0.190E-02 0.206E-02
 gam= 0.382 g(H,U,f)=  0.177E-02 0.277E-03 0.575E-19 ort(H,U,f) =-0.136E-02 0.899E-03 0.171E-18
DMP:  13    -0.114223038464E+04   -0.41700E-03   -0.74777E-03  1136   0.204E-02-0.457E-03
 gam= 0.382 g(H,U,f)=  0.449E-03 0.122E-03 0.233E-19 ort(H,U,f) =-0.530E-03 0.383E-03 0.684E-19
DMP:  14    -0.114223073856E+04   -0.35392E-03   -0.20551E-03  1136   0.570E-03-0.147E-03
 gam= 0.382 g(H,U,f)=  0.224E-04 0.517E-04 0.964E-20 ort(H,U,f) =-0.284E-04 0.176E-03 0.282E-19
DMP:  15    -0.114223086199E+04   -0.12343E-03   -0.52127E-04  1136   0.741E-04 0.147E-03
 gam= 0.382 g(H,U,f)=  0.277E-04 0.241E-04 0.426E-20 ort(H,U,f) =-0.183E-06 0.794E-04 0.123E-19
DMP:  16    -0.114223090188E+04   -0.39887E-04   -0.32807E-04  1136   0.518E-04 0.792E-04
 gam= 0.382 g(H,U,f)=  0.172E-04 0.122E-04 0.200E-20 ort(H,U,f) =-0.140E-04 0.371E-04 0.572E-20
DMP:  17    -0.114223092414E+04   -0.22266E-04   -0.15279E-04  1136   0.294E-04 0.231E-04
 gam= 0.382 g(H,U,f)=  0.166E-05 0.592E-05 0.975E-21 ort(H,U,f) =-0.709E-06 0.180E-04 0.275E-20
DMP:  18    -0.114223093330E+04   -0.91581E-05   -0.56799E-05  1136   0.758E-05 0.173E-04
 final diagonalization
   1 F= -.11422309E+04 E0= -.11422309E+04  d E =-.173631E-12  mag=     1.0000
 writing wavefunctions
