unknown system                          
           1
    16.404000    0.000000    0.000000
     0.000000   15.331377    0.000000
     0.000000    0.270104   15.328998
   Zn   Ge   P 
  47  49  96
Direct configuration=     1
   0.99763968  0.00007649  0.99740626
   0.16725384  0.62394331  0.37535185
   0.16775098  0.87297322  0.37379477
   0.99999834  0.49968904  0.75030765
   0.00020546  0.50015859  0.49998508
   0.16667721  0.12501707  0.87481279
   0.16689549  0.37538251  0.87486973
   0.00007686  0.25032832  0.50097929
   0.00235789  0.25258967  0.24991993
   0.16660950  0.87452391  0.62513466
   0.16631237  0.12540007  0.62483853
   0.99992060  0.74901745  0.99966783
   0.99979165  0.75001154  0.74983913
   0.16723278  0.37527211  0.12523710
   0.16713037  0.62409694  0.12460390
   0.33436543  0.99954438  0.24990279
   0.33364767  0.00018501  0.99960880
   0.50021975  0.62466536  0.37516489
   0.49999871  0.87513791  0.37485817
   0.33344364  0.49983232  0.75030101
   0.33361497  0.50015363  0.49985738
   0.49988976  0.12471409  0.87515816
   0.49999886  0.37526711  0.87472888
   0.33326483  0.25000584  0.50022935
   0.33392743  0.25067914  0.24970877
   0.49977795  0.87483280  0.62533038
   0.49969100  0.12532855  0.62497808
   0.33402542  0.74903567  0.99987646
   0.33329318  0.75019147  0.74964579
   0.50010756  0.37483761  0.12528209
   0.50030653  0.62501787  0.12466843
   0.66563195  0.00009472  0.25045161
   0.66606950  0.00028814  0.99931647
   0.83338788  0.62486165  0.37547228
   0.83224677  0.87620235  0.37702269
   0.66655314  0.49969593  0.75016507
   0.66670385  0.50035087  0.49980549
   0.83276435  0.12475972  0.87472298
   0.83310221  0.37512700  0.87461355
   0.66597159  0.25012099  0.50096044
   0.66634953  0.25038819  0.24981092
   0.83274361  0.87464493  0.62605229
   0.83286703  0.12539275  0.62589846
   0.66673243  0.74976780  0.99999119
   0.66638240  0.75013983  0.74984283
   0.83332005  0.37518394  0.12497872
   0.83368486  0.62515794  0.12459707
   0.16866743  0.87215735  0.12441159
   0.16802899  0.12682262  0.12481494
   0.99999885  0.74947846  0.50051898
   0.00179013  0.74755892  0.25042807
   0.16670603  0.37537010  0.62512277
   0.16679667  0.62463212  0.62525989
   0.99999859  0.25073986  0.99925622
   0.99978680  0.24998954  0.75027771
   0.16789445  0.12724448  0.37418328
   0.16717816  0.37555781  0.37541545
   0.00026694  0.00010657  0.75052044
   0.99820719  0.99956967  0.50243730
   0.16679295  0.62491495  0.87478565
   0.16656396  0.87449874  0.87501991
   0.99973031  0.49947525  0.24988956
   0.00021057  0.49971837  0.00000717
   0.50009075  0.87501712  0.12470631
   0.49999847  0.12497439  0.12502148
   0.33331911  0.74999581  0.49968883
   0.33400412  0.74898973  0.25007252
   0.49985239  0.37525644  0.62493727
   0.49999878  0.62491821  0.62507935
   0.33364719  0.25040024  0.99966032
   0.33327174  0.24992429  0.75010626
   0.49990664  0.12528995  0.37497940
   0.50007103  0.37493072  0.37518434
   0.33317034  0.00015874  0.74971872
   0.33336988  0.99967855  0.49990253
   0.50014468  0.62505948  0.87474096
   0.49992586  0.87481244  0.87506551
   0.33366854  0.50001020  0.24982663
   0.33353068  0.49977581  0.00018325
   0.83210304  0.87581334  0.12275082
   0.83196798  0.12518163  0.12317255
   0.66667864  0.75030744  0.50000033
   0.66662768  0.75009406  0.25031799
   0.83320386  0.37521096  0.62508077
   0.83320034  0.62473672  0.62536428
   0.66635002  0.25033595  0.99959545
   0.66646675  0.24981286  0.75022020
   0.83132915  0.12558570  0.37783762
   0.83343381  0.37497681  0.37549791
   0.66632880  0.00017006  0.74998533
   0.66599342  0.99992448  0.50100626
   0.83329119  0.62487400  0.87462667
   0.83281900  0.87458159  0.87443819
   0.66682683  0.50027720  0.24983837
   0.66672579  0.49989047  0.00007211
   0.99999860  0.00104567  0.24895074
   0.08461378  0.00099814  0.37914129
   0.24944521  0.12471269  0.24960265
   0.08725567  0.99932825  0.11979040
   0.25093070  0.87356150  0.24845889
   0.25010061  0.62603318  0.50131699
   0.08228648  0.74929836  0.37565679
   0.25094376  0.87515718  0.49975063
   0.08346055  0.74862327  0.62404422
   0.08340870  0.50110556  0.87612784
   0.24879212  0.62501386  0.75002844
   0.08459228  0.50002498  0.62516942
   0.25006348  0.37385954  0.74891966
   0.25017443  0.12607552  0.00065523
   0.08218903  0.25013206  0.87485442
   0.25146286  0.37501105  0.00006132
   0.08344464  0.24917731  0.12328240
   0.08338976  0.25140391  0.62655146
   0.24875990  0.37506765  0.50030453
   0.08476057  0.25056504  0.37568217
   0.24975213  0.12350804  0.49879063
   0.24984233  0.87625028  0.75109489
   0.08218633  0.99980898  0.62522555
   0.25123318  0.12501292  0.74974516
   0.08382617  0.99890999  0.87471993
   0.08334702  0.75030616  0.12570759
   0.24954347  0.87457930  0.99921293
   0.08463398  0.74973664  0.87491499
   0.25014939  0.62368034  0.99866935
   0.25013818  0.37612431  0.25134728
   0.08187732  0.49962253  0.12505308
   0.25137053  0.62472744  0.24993175
   0.08322163  0.49871678  0.37383834
   0.41676991  0.00121372  0.37616902
   0.58177017  0.12535586  0.25003815
   0.41822688  0.99995789  0.12464088
   0.58322786  0.87382779  0.24878228
   0.58342504  0.62636519  0.50109187
   0.41555473  0.74987576  0.37499306
   0.58444350  0.87500365  0.50012050
   0.41657259  0.74890553  0.62363137
   0.41673758  0.50118972  0.87627390
   0.58206190  0.62490245  0.74987242
   0.41793554  0.50012539  0.62509503
   0.58325988  0.37372232  0.74880645
   0.58320287  0.12628159  0.00114369
   0.41547791  0.24996017  0.87478257
   0.58451939  0.37521377  0.00003597
   0.41679394  0.24885245  0.12371494
   0.41645894  0.25122661  0.62619040
   0.58186439  0.37530699  0.50007997
   0.41793029  0.25004634  0.37511035
   0.58304187  0.12392971  0.49898107
   0.58321419  0.87620560  0.75117585
   0.41514727  0.00003165  0.62484352
   0.58446202  0.12498064  0.75002486
   0.41661413  0.99876714  0.87357693
   0.41695582  0.75101512  0.12606729
   0.58206685  0.87488647  0.99994964
   0.41813222  0.74991691  0.87468994
   0.58353850  0.62380606  0.99877044
   0.58338278  0.37641935  0.25122939
   0.41553534  0.49997120  0.12501555
   0.58485031  0.62515301  0.24996479
   0.41678287  0.49882025  0.37379124
   0.74906683  0.00153780  0.37643476
   0.91274128  0.13020613  0.25066666
   0.75055181  0.00039394  0.12528320
   0.91538339  0.87085478  0.24899777
   0.91653689  0.62595308  0.50137336
   0.74905424  0.75024545  0.37483909
   0.91771112  0.87434079  0.50069763
   0.74989618  0.74867941  0.62396360
   0.74993437  0.50107681  0.87613708
   0.91540497  0.62482726  0.74997134
   0.75120498  0.49996802  0.62498385
   0.91658831  0.37386869  0.74889013
   0.91655257  0.12671372  0.00081803
   0.74853449  0.24993518  0.87498493
   0.91780822  0.37514192  0.99986395
   0.74982257  0.24934094  0.12392030
   0.74984785  0.25132722  0.62631556
   0.91536369  0.37508205  0.50025962
   0.75045378  0.25078463  0.37541674
   0.91664968  0.12428965  0.49968872
   0.91677534  0.87615823  0.75127926
   0.74862709  0.00006474  0.62526864
   0.91812009  0.12494343  0.75037303
   0.74985935  0.99864966  0.87387182
   0.75024548  0.75120605  0.12648835
   0.91523685  0.87431446  0.99943065
   0.75123731  0.74969241  0.87492914
   0.91660764  0.62344509  0.99859287
   0.91617140  0.37527615  0.25108671
   0.74876420  0.50025087  0.12498358
   0.91781151  0.62477108  0.25018744
   0.75015483  0.49890164  0.37374650
