  128  128    1    2
  0.1142551E+02  0.1276578E-08  0.1105549E-08  0.1036240E-08  0.5000000E-15
  1.000000000000000E-004
  CAR 
 GaN                                     
    511      1    384
 
  0.0000000E+00  0.0000000E+00  0.0000000E+00  0.1000000E+01
    1      -15.867418    -15.857071   1.000000   1.000000
    2      -15.220152    -15.204467   1.000000   1.000000
    3      -15.181509    -15.174042   1.000000   1.000000
    4      -14.997282    -14.992114   1.000000   1.000000
    5      -14.976973    -14.965620   1.000000   1.000000
    6      -14.866121    -14.861787   1.000000   1.000000
    7      -14.855562    -14.830526   1.000000   1.000000
    8      -14.435167    -14.410914   1.000000   1.000000
    9      -14.414766    -14.405303   1.000000   1.000000
   10      -14.405813    -14.400723   1.000000   1.000000
   11      -14.368726    -14.362413   1.000000   1.000000
   12      -14.304057    -14.277051   1.000000   1.000000
   13      -14.279521    -14.273684   1.000000   1.000000
   14      -14.265985    -14.262056   1.000000   1.000000
   15      -14.237755    -14.220593   1.000000   1.000000
   16      -14.107290    -14.099758   1.000000   1.000000
   17      -14.101549    -14.094181   1.000000   1.000000
   18      -14.085200    -14.084233   1.000000   1.000000
   19      -14.049288    -14.005323   1.000000   1.000000
   20      -13.671372    -13.631340   1.000000   1.000000
   21      -13.639985    -13.626897   1.000000   1.000000
   22      -13.635692    -13.621887   1.000000   1.000000
   23      -13.633840    -13.620885   1.000000   1.000000
   24      -13.628306    -13.618903   1.000000   1.000000
   25      -13.625359    -13.617099   1.000000   1.000000
   26      -13.621488    -13.607669   1.000000   1.000000
   27      -13.613335    -13.602790   1.000000   1.000000
   28      -13.601454    -13.600737   1.000000   1.000000
   29      -13.540216    -13.527498   1.000000   1.000000
   30      -13.486024    -13.477350   1.000000   1.000000
   31      -13.485286    -13.467064   1.000000   1.000000
   32      -13.385740    -13.376425   1.000000   1.000000
   33      -13.321820    -13.304444   1.000000   1.000000
   34      -13.088731    -13.078890   1.000000   1.000000
   35      -13.079495    -13.063907   1.000000   1.000000
   36      -13.079363    -13.059778   1.000000   1.000000
   37      -13.060759    -13.054085   1.000000   1.000000
   38      -13.054591    -13.036380   1.000000   1.000000
   39      -13.050982    -13.035202   1.000000   1.000000
   40      -13.044435    -13.026763   1.000000   1.000000
   41      -13.030085    -13.025103   1.000000   1.000000
   42      -13.029969    -13.018677   1.000000   1.000000
   43      -13.024569    -13.014628   1.000000   1.000000
   44      -13.006632    -13.007462   1.000000   1.000000
   45      -12.964740    -12.946061   1.000000   1.000000
   46      -12.953328    -12.933585   1.000000   1.000000
   47      -12.893479    -12.878897   1.000000   1.000000
   48      -12.837872    -12.829056   1.000000   1.000000
   49      -12.827333    -12.812579   1.000000   1.000000
   50      -12.825054    -12.793835   1.000000   1.000000
   51      -12.798474    -12.792938   1.000000   1.000000
   52      -12.783572    -12.779178   1.000000   1.000000
   53      -12.687175    -12.680642   1.000000   1.000000
   54      -12.644136    -12.616025   1.000000   1.000000
   55      -12.621263    -12.615582   1.000000   1.000000
   56      -12.612938    -12.605995   1.000000   1.000000
   57      -12.611061    -12.596999   1.000000   1.000000
   58      -12.601375    -12.594820   1.000000   1.000000
   59      -12.601299    -12.593468   1.000000   1.000000
   60      -12.593990    -12.575223   1.000000   1.000000
   61      -12.562818    -12.557140   1.000000   1.000000
   62      -12.495128    -12.481754   1.000000   1.000000
   63      -12.472375    -12.463835   1.000000   1.000000
   64       -9.578742     -8.689507   1.000000   1.000000
   65       -5.691277     -5.687756   1.000000   1.000000
   66       -5.283055     -5.277716   1.000000   1.000000
   67       -5.276046     -5.273887   1.000000   1.000000
   68       -5.273639     -5.267522   1.000000   1.000000
   69       -5.268122     -5.257383   1.000000   1.000000
   70       -5.262666     -5.247305   1.000000   1.000000
   71       -5.254736     -5.225364   1.000000   1.000000
   72       -5.101064     -5.085001   1.000000   1.000000
   73       -5.093024     -5.082246   1.000000   1.000000
   74       -5.089857     -5.062807   1.000000   1.000000
   75       -5.004092     -4.998345   1.000000   1.000000
   76       -4.974367     -4.970941   1.000000   1.000000
   77       -4.842063     -4.835841   1.000000   1.000000
   78       -4.835879     -4.824366   1.000000   1.000000
   79       -4.820667     -4.818574   1.000000   1.000000
   80       -4.798481     -4.793752   1.000000   1.000000
   81       -4.793997     -4.783308   1.000000   1.000000
   82       -4.762782     -4.755253   1.000000   1.000000
   83       -4.569889     -4.562947   1.000000   1.000000
   84       -4.564121     -4.553581   1.000000   1.000000
   85       -4.561723     -4.537761   1.000000   1.000000
   86       -4.549748     -4.501864   1.000000   1.000000
   87       -4.382147     -4.369751   1.000000   1.000000
   88       -4.370920     -4.363105   1.000000   1.000000
   89       -4.360122     -4.357641   1.000000   1.000000
   90       -4.355562     -4.348386   1.000000   1.000000
   91       -4.331402     -4.315126   1.000000   1.000000
   92       -4.307133     -4.299848   1.000000   1.000000
   93       -4.186399     -4.159793   1.000000   1.000000
   94       -4.168644     -4.153600   1.000000   1.000000
   95       -3.914636     -3.907535   1.000000   1.000000
   96       -3.913760     -3.906058   1.000000   1.000000
   97       -3.905287     -3.901307   1.000000   1.000000
   98       -3.902738     -3.900302   1.000000   1.000000
   99       -3.900576     -3.876188   1.000000   1.000000
  100       -3.888262     -3.869578   1.000000   1.000000
  101       -3.877483     -3.864601   1.000000   1.000000
  102       -3.856611     -3.835650   1.000000   1.000000
  103       -3.803235     -3.795305   1.000000   1.000000
  104       -3.802479     -3.766124   1.000000   1.000000
  105       -3.778314     -3.762703   1.000000   1.000000
  106       -3.696152     -3.658541   1.000000   1.000000
  107       -3.681003     -3.655807   1.000000   1.000000
  108       -3.651419     -3.587901   1.000000   1.000000
  109       -3.594969     -3.572329   1.000000   1.000000
  110       -3.228643     -3.203799   1.000000   1.000000
  111       -3.225547     -3.202829   1.000000   1.000000
  112       -3.141820     -3.128866   1.000000   1.000000
  113       -3.130693     -3.122435   1.000000   1.000000
  114       -3.123848     -3.119706   1.000000   1.000000
  115       -3.121421     -3.111340   1.000000   1.000000
  116       -3.108261     -3.096888   1.000000   1.000000
  117       -3.105918     -3.081164   1.000000   1.000000
  118       -3.092166     -3.036764   1.000000   1.000000
  119       -3.044179     -3.018555   1.000000   1.000000
  120       -2.768837     -2.761124   1.000000   1.000000
  121       -2.757896     -2.737175   1.000000   1.000000
  122       -2.743397     -2.719521   1.000000   1.000000
  123       -2.694287     -2.660416   1.000000   1.000000
  124       -2.623098     -2.612973   1.000000   1.000000
  125       -2.613125     -2.607901   1.000000   1.000000
  126       -2.580117     -2.574804   1.000000   1.000000
  127       -2.500991     -2.488592   1.000000   1.000000
  128       -2.465598     -2.455283   1.000000   1.000000
  129       -2.448348     -2.440486   1.000000   1.000000
  130       -2.440308     -2.435766   1.000000   1.000000
  131       -2.417334     -2.409112   1.000000   1.000000
  132       -2.411641     -2.398144   1.000000   1.000000
  133       -2.380703     -2.366108   1.000000   1.000000
  134       -2.360904     -2.343476   1.000000   1.000000
  135       -2.336727     -2.320076   1.000000   1.000000
  136       -2.325800     -2.318265   1.000000   1.000000
  137       -2.324487     -2.300609   1.000000   1.000000
  138       -2.314993     -2.293344   1.000000   1.000000
  139       -2.300696     -2.247084   1.000000   1.000000
  140       -2.257144     -2.230760   1.000000   1.000000
  141       -2.243164     -2.214103   1.000000   1.000000
  142       -2.156691     -2.090603   1.000000   1.000000
  143       -1.774521     -1.762404   1.000000   1.000000
  144       -1.764241     -1.756608   1.000000   1.000000
  145       -1.759913     -1.756546   1.000000   1.000000
  146       -1.759757     -1.731703   1.000000   1.000000
  147       -1.726453     -1.714885   1.000000   1.000000
  148       -1.717386     -1.703627   1.000000   1.000000
  149       -1.607287     -1.568570   1.000000   1.000000
  150       -1.604051     -1.557447   1.000000   1.000000
  151       -1.192159     -1.184566   1.000000   1.000000
  152       -1.182141     -1.167460   1.000000   1.000000
  153       -1.072931     -1.053719   1.000000   1.000000
  154       -1.065368     -1.050150   1.000000   1.000000
  155       -1.057213     -1.042447   1.000000   1.000000
  156       -1.044181     -1.025648   1.000000   1.000000
  157       -1.041399     -1.008016   1.000000   1.000000
  158       -1.013660     -1.002609   1.000000   1.000000
  159       -1.002833     -0.981027   1.000000   1.000000
  160       -0.993805     -0.937365   1.000000   1.000000
  161       -0.946532     -0.888437   1.000000   1.000000
  162       -0.904300     -0.875863   1.000000   1.000000
  163       -0.876016     -0.856988   1.000000   1.000000
  164       -0.778511     -0.755312   1.000000   1.000000
  165       -0.773512     -0.749703   1.000000   1.000000
  166       -0.591571     -0.579528   1.000000   1.000000
  167       -0.588342     -0.575408   1.000000   1.000000
  168       -0.578688     -0.574000   1.000000   1.000000
  169       -0.578234     -0.568235   1.000000   1.000000
  170       -0.572697     -0.559646   1.000000   1.000000
  171       -0.566236     -0.548518   1.000000   1.000000
  172       -0.564997     -0.508046   1.000000   1.000000
  173       -0.551483     -0.490636   1.000000   1.000000
  174       -0.434009     -0.426038   1.000000   1.000000
  175       -0.429440     -0.419738   1.000000   1.000000
  176       -0.395090     -0.390594   1.000000   1.000000
  177       -0.378053     -0.352729   1.000000   1.000000
  178       -0.358896     -0.349087   1.000000   1.000000
  179       -0.306293     -0.302742   1.000000   1.000000
  180       -0.304941     -0.299076   1.000000   1.000000
  181       -0.289836     -0.280293   1.000000   1.000000
  182       -0.288338     -0.279702   1.000000   1.000000
  183       -0.258036     -0.243723   1.000000   1.000000
  184       -0.247632     -0.225179   1.000000   1.000000
  185       -0.214351     -0.184408   1.000000   1.000000
  186       -0.194834     -0.182407   1.000000   1.000000
  187       -0.187747     -0.177425   1.000000   1.000000
  188       -0.181513     -0.168990   1.000000   1.000000
  189       -0.179785     -0.137479   1.000000   1.000000
  190       -0.160816     -0.134160   1.000000   1.000000
  191       -0.139645     -0.131039   1.000000   1.000000
  192       -0.128646     -0.116784   1.000000   1.000000
  193       -0.124358     -0.111223   1.000000   1.000000
  194       -0.123503     -0.108391   1.000000   1.000000
  195       -0.118527     -0.096094   1.000000   1.000000
  196       -0.107107     -0.095870   1.000000   1.000000
  197       -0.099772     -0.088377   1.000000   1.000000
  198       -0.098833     -0.085564   1.000000   1.000000
  199       -0.090970     -0.081420   1.000000   1.000000
  200       -0.083466     -0.064639   1.000000   1.000000
  201       -0.066468     -0.041697   1.000000   1.000000
  202       -0.048256     -0.028799   1.000000   1.000000
  203       -0.013453     -0.000646   1.000000   1.000000
  204       -0.008192      0.001453   1.000000   1.000000
  205       -0.001265      0.004620   1.000000   1.000000
  206        0.013241      0.020925   1.000000   1.000000
  207        0.022940      0.032786   1.000000   1.000000
  208        0.024094      0.065193   1.000000   1.000000
  209        0.044249      0.072167   1.000000   1.000000
  210        0.081429      0.105957   1.000000   1.000000
  211        0.098085      0.160769   1.000000   1.000000
  212        0.177606      0.196151   1.000000   1.000000
  213        0.193338      0.199251   1.000000   1.000000
  214        0.196268      0.233862   1.000000   1.000000
  215        0.224187      0.265522   1.000000   1.000000
  216        0.255769      0.267836   1.000000   1.000000
  217        0.326445      0.335338   1.000000   1.000000
  218        0.336248      0.371626   1.000000   1.000000
  219        0.362577      0.377651   1.000000   1.000000
  220        0.469467      0.479862   1.000000   1.000000
  221        0.481105      0.490314   1.000000   1.000000
  222        0.490082      0.492562   1.000000   1.000000
  223        0.503442      0.520405   1.000000   1.000000
  224        0.506164      0.527069   1.000000   1.000000
  225        0.521678      0.530938   1.000000   1.000000
  226        0.533558      0.547501   1.000000   1.000000
  227        0.556828      0.590312   1.000000   1.000000
  228        0.577773      0.638882   1.000000   1.000000
  229        0.658147      0.670664   1.000000   1.000000
  230        0.666064      0.676344   1.000000   1.000000
  231        0.668199      0.680260   1.000000   1.000000
  232        0.676369      0.684488   1.000000   1.000000
  233        0.681822      0.700594   1.000000   1.000000
  234        0.699580      0.739129   1.000000   1.000000
  235        0.721311      0.757305   1.000000   1.000000
  236        0.796981      0.814583   1.000000   1.000000
  237        0.804046      0.828923   1.000000   1.000000
  238        0.836751      0.875109   1.000000   1.000000
  239        0.880990      0.927227   1.000000   1.000000
  240        0.910949      1.037468   1.000000   1.000000
  241        0.996043      1.143684   1.000000   1.000000
  242        1.201669      1.204222   1.000000   1.000000
  243        1.268938      1.288040   1.000000   1.000000
  244        1.297862      1.309868   1.000000   1.000000
  245        1.312010      1.319990   1.000000   1.000000
  246        1.342931      1.352265   1.000000   1.000000
  247        1.348260      1.354852   1.000000   1.000000
  248        1.359383      1.382050   1.000000   1.000000
  249        1.388757      1.400708   1.000000   1.000000
  250        1.399933      1.410376   1.000000   1.000000
  251        1.459704      1.633832   1.000000   1.000000
  252        1.564114      1.655472   1.000000   1.000000
  253        1.590648      1.860320   1.000000   1.000000
  254        1.950162      2.069227   1.000000   1.000000
  255        2.015646      2.083798   1.000000   1.000000
  256        2.019198      3.548337   1.000000   0.000000
  257        5.592383      5.601424   0.000000   0.000000
  258        7.809671      7.824369   0.000000   0.000000
  259        7.810942      7.853751   0.000000   0.000000
  260        7.973155      7.986575   0.000000   0.000000
  261        7.997226      8.003478   0.000000   0.000000
  262        8.003238      8.003583   0.000000   0.000000
  263        8.009257      8.008489   0.000000   0.000000
  264        8.014699      8.016328   0.000000   0.000000
  265        8.017892      8.025748   0.000000   0.000000
  266        8.026304      8.026678   0.000000   0.000000
  267        8.050533      8.051593   0.000000   0.000000
  268        8.051606      8.055670   0.000000   0.000000
  269        8.062554      8.066919   0.000000   0.000000
  270        8.210813      8.226787   0.000000   0.000000
  271        8.649840      8.655244   0.000000   0.000000
  272        8.651427      8.656100   0.000000   0.000000
  273        8.662140      8.662453   0.000000   0.000000
  274        8.803908      8.806109   0.000000   0.000000
  275        8.807325      8.810180   0.000000   0.000000
  276        8.981716      8.984793   0.000000   0.000000
  277        8.995039      8.996291   0.000000   0.000000
  278        9.002769      9.004834   0.000000   0.000000
  279        9.007392      9.010601   0.000000   0.000000
  280        9.098317      9.112158   0.000000   0.000000
  281        9.128898      9.138982   0.000000   0.000000
  282        9.143352      9.145543   0.000000   0.000000
  283        9.150903      9.162388   0.000000   0.000000
  284        9.160731      9.163235   0.000000   0.000000
  285        9.174418      9.179661   0.000000   0.000000
  286        9.180985      9.183564   0.000000   0.000000
  287        9.183234      9.187348   0.000000   0.000000
  288        9.186596      9.193563   0.000000   0.000000
  289        9.190400      9.207532   0.000000   0.000000
  290        9.213800      9.215468   0.000000   0.000000
  291        9.265332      9.269428   0.000000   0.000000
  292        9.313300      9.316073   0.000000   0.000000
  293        9.323752      9.330888   0.000000   0.000000
  294        9.333583      9.334705   0.000000   0.000000
  295        9.335804      9.345927   0.000000   0.000000
  296        9.343597      9.349291   0.000000   0.000000
  297        9.354959      9.361995   0.000000   0.000000
  298        9.369785      9.399489   0.000000   0.000000
  299        9.400941      9.408478   0.000000   0.000000
  300        9.512149      9.532236   0.000000   0.000000
  301        9.603120      9.611793   0.000000   0.000000
  302        9.615675      9.628961   0.000000   0.000000
  303        9.630654      9.632764   0.000000   0.000000
  304        9.673279      9.686901   0.000000   0.000000
  305        9.775067      9.771889   0.000000   0.000000
  306        9.793212      9.797896   0.000000   0.000000
  307        9.809217      9.809643   0.000000   0.000000
  308        9.817709      9.815951   0.000000   0.000000
  309        9.822289      9.825848   0.000000   0.000000
  310        9.838880      9.860006   0.000000   0.000000
  311        9.848495      9.871742   0.000000   0.000000
  312        9.882687      9.874004   0.000000   0.000000
  313       10.051579     10.079039   0.000000   0.000000
  314       10.177114     10.214865   0.000000   0.000000
  315       10.285001     10.340962   0.000000   0.000000
  316       10.416302     10.427728   0.000000   0.000000
  317       10.429654     10.438824   0.000000   0.000000
  318       10.454442     10.465738   0.000000   0.000000
  319       10.498869     10.508113   0.000000   0.000000
  320       10.555030     10.554579   0.000000   0.000000
  321       10.562750     10.571248   0.000000   0.000000
  322       10.579597     10.599273   0.000000   0.000000
  323       10.607530     10.624316   0.000000   0.000000
  324       10.845110     10.904329   0.000000   0.000000
  325       10.898363     10.927029   0.000000   0.000000
  326       11.349093     11.366500   0.000000   0.000000
  327       11.394592     11.426898   0.000000   0.000000
  328       11.518433     11.527658   0.000000   0.000000
  329       11.537146     11.552394   0.000000   0.000000
  330       11.575594     11.571953   0.000000   0.000000
  331       11.591598     11.615343   0.000000   0.000000
  332       11.607386     11.619475   0.000000   0.000000
  333       11.629211     11.638890   0.000000   0.000000
  334       11.646153     11.650890   0.000000   0.000000
  335       11.670546     11.674386   0.000000   0.000000
  336       11.693415     11.696242   0.000000   0.000000
  337       11.703705     11.712759   0.000000   0.000000
  338       11.721205     11.733715   0.000000   0.000000
  339       11.732988     11.758936   0.000000   0.000000
  340       11.744204     11.769192   0.000000   0.000000
  341       11.773850     11.779100   0.000000   0.000000
  342       11.794260     11.808034   0.000000   0.000000
  343       11.806379     11.811198   0.000000   0.000000
  344       11.821970     11.826766   0.000000   0.000000
  345       11.824974     11.841307   0.000000   0.000000
  346       11.871851     11.860028   0.000000   0.000000
  347       11.895515     11.891526   0.000000   0.000000
  348       11.902018     11.905771   0.000000   0.000000
  349       11.930842     11.934752   0.000000   0.000000
  350       11.966229     11.969117   0.000000   0.000000
  351       11.973530     11.988282   0.000000   0.000000
  352       12.004994     12.039281   0.000000   0.000000
  353       12.023130     12.042761   0.000000   0.000000
  354       12.064897     12.075355   0.000000   0.000000
  355       12.083443     12.078194   0.000000   0.000000
  356       12.109705     12.117335   0.000000   0.000000
  357       12.135562     12.121313   0.000000   0.000000
  358       12.158582     12.145777   0.000000   0.000000
  359       12.192603     12.228312   0.000000   0.000000
  360       12.219169     12.285687   0.000000   0.000000
  361       12.230697     12.301862   0.000000   0.000000
  362       12.326077     12.334411   0.000000   0.000000
  363       12.374092     12.372632   0.000000   0.000000
  364       12.409166     12.418635   0.000000   0.000000
  365       12.527952     12.463217   0.000000   0.000000
  366       12.552498     12.568164   0.000000   0.000000
  367       12.589892     12.589118   0.000000   0.000000
  368       12.620359     12.623262   0.000000   0.000000
  369       12.718759     12.723993   0.000000   0.000000
  370       12.753462     12.781017   0.000000   0.000000
  371       12.837496     12.902754   0.000000   0.000000
  372       12.921187     12.997228   0.000000   0.000000
  373       13.054255     12.998749   0.000000   0.000000
  374       13.165304     13.145892   0.000000   0.000000
  375       13.222852     13.283844   0.000000   0.000000
  376       13.273492     13.346565   0.000000   0.000000
  377       13.454790     13.452125   0.000000   0.000000
  378       13.524790     13.517176   0.000000   0.000000
  379       13.608106     13.589531   0.000000   0.000000
  380       13.686694     13.694531   0.000000   0.000000
  381       13.744714     13.772363   0.000000   0.000000
  382       13.814567     13.855338   0.000000   0.000000
  383       13.882779     13.908399   0.000000   0.000000
  384       14.023343     14.000021   0.000000   0.000000
