       N       E                     dE             d eps       ncg     rms          ort
DAV:   1     0.407226999082E+04    0.40723E+04   -0.20905E+05   384   0.102E+03
DAV:   2     0.939968416726E+03   -0.31323E+04   -0.28800E+04   384   0.244E+02
DAV:   3     0.448502746140E+03   -0.49147E+03   -0.46855E+03   384   0.878E+01
DAV:   4     0.359628134414E+03   -0.88875E+02   -0.86678E+02   384   0.412E+01
DAV:   5     0.340915691529E+03   -0.18712E+02   -0.18268E+02   384   0.170E+01
SDA:   6    -0.965758912371E+03   -0.13067E+04   -0.12843E+02   384   0.642E+02 0.000E+00
DMP:   7    -0.975819505201E+03   -0.10061E+02   -0.85233E+01   384   0.239E+02 0.361E+02
DMP:   8    -0.981270834165E+03   -0.54513E+01   -0.25224E+01   384   0.625E+01 0.122E+02
DMP:   9    -0.982670790865E+03   -0.14000E+01   -0.10715E+01   384   0.473E+01 0.122E+01
DMP:  10    -0.983416785265E+03   -0.74599E+00   -0.83630E+00   384   0.320E+01 0.189E+01
DMP:  11    -0.984040802827E+03   -0.62402E+00   -0.46974E+00   384   0.136E+01 0.191E+01
DMP:  12    -0.984370936422E+03   -0.33013E+00   -0.20418E+00   384   0.570E+00 0.868E+00
DMP:  13    -0.984513736297E+03   -0.14280E+00   -0.12267E+00   384   0.423E+00 0.367E+00
DMP:  14    -0.984611491912E+03   -0.97756E-01   -0.10091E+00   384   0.324E+00 0.348E+00
DMP:  15    -0.984693483864E+03   -0.81992E-01   -0.66510E-01   384   0.172E+00 0.309E+00
DMP:  16    -0.984743939650E+03   -0.50456E-01   -0.31639E-01   384   0.701E-01 0.170E+00
DMP:  17    -0.984767060103E+03   -0.23120E-01   -0.15492E-01   384   0.400E-01 0.721E-01
DMP:  18    -0.984779457227E+03   -0.12397E-01   -0.10789E-01   384   0.300E-01 0.461E-01
DMP:  19    -0.984788714936E+03   -0.92577E-02   -0.77766E-02   384   0.189E-01 0.385E-01
DMP:  20    -0.984795402906E+03   -0.66880E-02   -0.50829E-02   384   0.109E-01 0.279E-01
DMP:  21    -0.984799803079E+03   -0.44002E-02   -0.33283E-02   384   0.700E-02 0.186E-01
DMP:  22    -0.984802750487E+03   -0.29474E-02   -0.23344E-02   384   0.500E-02 0.128E-01
DMP:  23    -0.984804854991E+03   -0.21045E-02   -0.16905E-02   384   0.358E-02 0.939E-02
DMP:  24    -0.984806383060E+03   -0.15281E-02   -0.12041E-02   384   0.246E-02 0.685E-02
DMP:  25    -0.984807472421E+03   -0.10894E-02   -0.85194E-03   384   0.172E-02 0.489E-02
DMP:  26    -0.984808250426E+03   -0.77800E-03   -0.61868E-03   384   0.126E-02 0.353E-02
DMP:  27    -0.984808821700E+03   -0.57127E-03   -0.46054E-03   384   0.940E-03 0.262E-02
DMP:  28    -0.984809249479E+03   -0.42778E-03   -0.34549E-03   384   0.701E-03 0.198E-02
DMP:  29    -0.984809571338E+03   -0.32186E-03   -0.26024E-03   384   0.526E-03 0.149E-02
DMP:  30    -0.984809814500E+03   -0.24316E-03   -0.19764E-03   384   0.401E-03 0.113E-02
DMP:  31    -0.984809999792E+03   -0.18529E-03   -0.15160E-03   384   0.309E-03 0.865E-03
DMP:  32    -0.984810142286E+03   -0.14249E-03   -0.11720E-03   384   0.239E-03 0.667E-03
DMP:  33    -0.984810252645E+03   -0.11036E-03   -0.91469E-04   384   0.188E-03 0.518E-03
DMP:  34    -0.984810338945E+03   -0.86300E-04   -0.72496E-04   384   0.151E-03 0.406E-03
DMP:  35    -0.984810407483E+03   -0.68538E-04   -0.58433E-04   384   0.124E-03 0.324E-03
DMP:  36    -0.984810462824E+03   -0.55340E-04   -0.47908E-04   384   0.103E-03 0.263E-03
DMP:  37    -0.984810508291E+03   -0.45467E-04   -0.39982E-04   384   0.875E-04 0.216E-03
DMP:  38    -0.984810546323E+03   -0.38032E-04   -0.33924E-04   384   0.753E-04 0.182E-03
DMP:  39    -0.984810578648E+03   -0.32325E-04   -0.29186E-04   384   0.656E-04 0.155E-03
DMP:  40    -0.984810606481E+03   -0.27833E-04   -0.25380E-04   384   0.576E-04 0.133E-03
DMP:  41    -0.984810630678E+03   -0.24198E-04   -0.22225E-04   384   0.508E-04 0.116E-03
DMP:  42    -0.984810651850E+03   -0.21171E-04   -0.19526E-04   384   0.448E-04 0.102E-03
DMP:  43    -0.984810670425E+03   -0.18576E-04   -0.17207E-04   384   0.397E-04 0.893E-04
DMP:  44    -0.984810686761E+03   -0.16335E-04   -0.15100E-04   384   0.348E-04 0.784E-04
DMP:  45    -0.984810701056E+03   -0.14296E-04   -0.13166E-04   384   0.302E-04 0.686E-04
DMP:  46    -0.984810713483E+03   -0.12427E-04   -0.11386E-04   384   0.260E-04 0.595E-04
DMP:  47    -0.984810724194E+03   -0.10710E-04   -0.97485E-05   384   0.222E-04 0.512E-04
DMP:  48    -0.984810733330E+03   -0.91361E-05   -0.82499E-05   384   0.186E-04 0.435E-04
   1 F= -.98481073E+03 E0= -.98481073E+03  d E =-.349513E-20  mag=     1.0000
 imaginary and real dielectric function
