 vasp.5.4.4.18Apr17-6-g9f103f2a35 (build Dec 09 2021 16:20:36) complex          
  
 executed on             LinuxIFC date 2022.01.30  21:33:16
 running on   64 total cores
 distrk:  each k-point on   64 cores,    1 groups
 distr:  one band on NCORES_PER_BAND=   8 cores,    8 groups


--------------------------------------------------------------------------------------------------------


 INCAR:
 POTCAR:    PAW_PBE Ga 08Apr2002                  
 POTCAR:    PAW_PBE N 08Apr2002                   
 POTCAR:    PAW_PBE C 08Apr2002                   
 POTCAR:    PAW_PBE Ga 08Apr2002                  
   VRHFIN =Ga: s2p1                                                             
   LEXCH  = PE                                                                  
   EATOM  =    58.8688 eV,    4.3267 Ry                                         
                                                                                
   TITEL  = PAW_PBE Ga 08Apr2002                                                
   LULTRA =        F    use ultrasoft PP ?                                      
   IUNSCR =        1    unscreen: 0-lin 1-nonlin 2-no                           
   RPACOR =    2.170    partial core radius                                     
   POMASS =   69.723; ZVAL   =    3.000    mass and valenz                      
   RCORE  =    2.600    outmost cutoff radius                                   
   RWIGS  =    2.650; RWIGS  =    1.402    wigner-seitz radius (au A)           
   ENMAX  =  134.678; ENMIN  =  101.009 eV                                      
   ICORE  =        3    local potential                                         
   LCOR   =        T    correct aug charges                                     
   LPAW   =        T    paw PP                                                  
   EAUG   =  320.264                                                            
   DEXC   =    0.000                                                            
   RMAX   =    2.658    core radius for proj-oper                               
   RAUG   =    1.300    factor for augmentation sphere                          
   RDEP   =    2.684    radius for radial grids                                 
   RDEPT  =    2.308    core radius for aug-charge                              
                                                                                
   Atomic configuration                                                         
   10 entries                                                                   
     n  l   j            E        occ.                                          
     1  0  0.50    -10228.7830   2.0000                                         
     2  0  0.50     -1262.1604   2.0000                                         
     2  1  1.50     -1098.6333   6.0000                                         
     3  0  0.50      -148.1110   2.0000                                         
     3  1  1.50       -98.8436   6.0000                                         
     3  2  2.50       -19.1549  10.0000                                         
     4  0  0.50        -8.9483   2.0000                                         
     4  1  0.50        -2.5791   1.0000                                         
     4  2  1.50         5.4423   0.0000                                         
     4  3  2.50        -2.7416   0.0000                                         
   Description                                                                  
     l       E           TYP  RCUT    TYP  RCUT                                 
     0     -8.9483097     23  2.600                                             
     0     -5.8232215     23  2.600                                             
     1     -2.5790793     23  2.600                                             
     1      5.2230115     23  2.600                                             
     2      1.3605826     23  2.600                                             
     3     -1.3605826      7  2.600                                             
  local pseudopotential read in
  partial core-charges read in
  partial kinetic energy density read in
  atomic valenz-charges read in
  non local Contribution for L=           0  read in
    real space projection operators read in
  non local Contribution for L=           0  read in
    real space projection operators read in
  non local Contribution for L=           1  read in
    real space projection operators read in
  non local Contribution for L=           1  read in
    real space projection operators read in
  non local Contribution for L=           2  read in
    real space projection operators read in
    PAW grid and wavefunctions read in
 
   number of l-projection  operators is LMAX  =           5
   number of lm-projection operators is LMMAX =          13
 
 POTCAR:    PAW_PBE N 08Apr2002                   
   VRHFIN =N: s2p3                                                              
   LEXCH  = PE                                                                  
   EATOM  =   264.5486 eV,   19.4438 Ry                                         
                                                                                
   TITEL  = PAW_PBE N 08Apr2002                                                 
   LULTRA =        F    use ultrasoft PP ?                                      
   IUNSCR =        1    unscreen: 0-lin 1-nonlin 2-no                           
   RPACOR =    1.200    partial core radius                                     
   POMASS =   14.001; ZVAL   =    5.000    mass and valenz                      
   RCORE  =    1.500    outmost cutoff radius                                   
   RWIGS  =    1.400; RWIGS  =    0.741    wigner-seitz radius (au A)           
   ENMAX  =  400.000; ENMIN  =  300.000 eV                                      
   ICORE  =        2    local potential                                         
   LCOR   =        T    correct aug charges                                     
   LPAW   =        T    paw PP                                                  
   EAUG   =  627.112                                                            
   DEXC   =    0.000                                                            
   RMAX   =    1.529    core radius for proj-oper                               
   RAUG   =    1.300    factor for augmentation sphere                          
   RDEP   =    1.514    radius for radial grids                                 
   RDEPT  =    1.338    core radius for aug-charge                              
                                                                                
   Atomic configuration                                                         
    4 entries                                                                   
     n  l   j            E        occ.                                          
     1  0  0.50      -384.7179   2.0000                                         
     2  0  0.50       -18.5828   2.0000                                         
     2  1  0.50        -7.0898   3.0000                                         
     3  2  1.50        -6.8029   0.0000                                         
   Description                                                                  
     l       E           TYP  RCUT    TYP  RCUT                                 
     0    -18.5828119     23  1.200                                             
     0    -13.5018863     23  1.200                                             
     1     -7.0897853     23  1.500                                             
     1      9.5240782     23  1.500                                             
     2     -6.8029130      7  1.500                                             
  local pseudopotential read in
  partial core-charges read in
  partial kinetic energy density read in
  atomic valenz-charges read in
  non local Contribution for L=           0  read in
    real space projection operators read in
  non local Contribution for L=           0  read in
    real space projection operators read in
  non local Contribution for L=           1  read in
    real space projection operators read in
  non local Contribution for L=           1  read in
    real space projection operators read in
    PAW grid and wavefunctions read in
 
   number of l-projection  operators is LMAX  =           4
   number of lm-projection operators is LMMAX =           8
 
 POTCAR:    PAW_PBE C 08Apr2002                   
   VRHFIN =C: s2p2                                                              
   LEXCH  = PE                                                                  
   EATOM  =   147.1560 eV,   10.8157 Ry                                         
                                                                                
   TITEL  = PAW_PBE C 08Apr2002                                                 
   LULTRA =        F    use ultrasoft PP ?                                      
   IUNSCR =        1    unscreen: 0-lin 1-nonlin 2-no                           
   RPACOR =    1.200    partial core radius                                     
   POMASS =   12.011; ZVAL   =    4.000    mass and valenz                      
   RCORE  =    1.500    outmost cutoff radius                                   
   RWIGS  =    1.630; RWIGS  =    0.863    wigner-seitz radius (au A)           
   ENMAX  =  400.000; ENMIN  =  300.000 eV                                      
   ICORE  =        2    local potential                                         
   LCOR   =        T    correct aug charges                                     
   LPAW   =        T    paw PP                                                  
   EAUG   =  644.873                                                            
   DEXC   =    0.000                                                            
   RMAX   =    1.529    core radius for proj-oper                               
   RAUG   =    1.300    factor for augmentation sphere                          
   RDEP   =    1.501    radius for radial grids                                 
   RDEPT  =    1.300    core radius for aug-charge                              
                                                                                
   Atomic configuration                                                         
    4 entries                                                                   
     n  l   j            E        occ.                                          
     1  0  0.50      -273.3789   2.0000                                         
     2  0  0.50       -13.7508   2.0000                                         
     2  1  0.50        -5.2854   2.0000                                         
     3  2  1.50        -5.4423   0.0000                                         
   Description                                                                  
     l       E           TYP  RCUT    TYP  RCUT                                 
     0    -13.7508458     23  1.200                                             
     0     -8.2022199     23  1.200                                             
     1     -5.2854383     23  1.500                                             
     1     34.0145650     23  1.500                                             
     2     -5.4423304      7  1.500                                             
  local pseudopotential read in
  partial core-charges read in
  partial kinetic energy density read in
  atomic valenz-charges read in
  non local Contribution for L=           0  read in
    real space projection operators read in
  non local Contribution for L=           0  read in
    real space projection operators read in
  non local Contribution for L=           1  read in
    real space projection operators read in
  non local Contribution for L=           1  read in
    real space projection operators read in
    PAW grid and wavefunctions read in
 
   number of l-projection  operators is LMAX  =           4
   number of lm-projection operators is LMMAX =           8
 

 ----------------------------------------------------------------------------- 
|                                                                             |
|  ADVICE TO THIS USER RUNNING 'VASP/VAMP'   (HEAR YOUR MASTER'S VOICE ...):  |
|                                                                             |
|      You have a (more or less) 'large supercell' and for larger cells       |
|      it might be more efficient to use real space projection opertators     |
|      So try LREAL= Auto  in the INCAR   file.                               |
|      Mind:          For very  accurate calculation you might also keep the  |
|      reciprocal projection scheme          (i.e. LREAL=.FALSE.)             |
|                                                                             |
 ----------------------------------------------------------------------------- 

  PAW_PBE Ga 08Apr2002                  :
 energy of atom  1       EATOM=  -58.8688
 kinetic energy error for atom=    0.0001 (will be added to EATOM!!)
  PAW_PBE N 08Apr2002                   :
 energy of atom  2       EATOM= -264.5486
 kinetic energy error for atom=    0.0736 (will be added to EATOM!!)
  PAW_PBE C 08Apr2002                   :
 energy of atom  3       EATOM= -147.1560
 kinetic energy error for atom=    0.0288 (will be added to EATOM!!)
 
 
 POSCAR: C_N1                                    
  positions in direct lattice
  velocities in cartesian coordinates
 exchange correlation table for  LEXCH =        8
   RHO(1)=    0.500       N(1)  =     2000
   RHO(2)=  100.500       N(2)  =     4000
 


--------------------------------------------------------------------------------------------------------


 ion  position               nearest neighbor table
   1  0.000  0.168  0.255-  67 1.96 113 1.96  65 1.96 128 1.96   8 3.16  54 3.16   6 3.16  49 3.18
                            17 3.18  51 3.18   3 3.18  59 3.20  11 3.20   4 3.24  50 3.27   2 3.27
   2  0.125  0.078  0.997-  74 1.93  69 1.94  80 1.97 128 2.03  15 3.13  12 3.15  28 3.16   5 3.16
                            21 3.17  11 3.18  18 3.19  50 3.19  17 3.23  20 3.24   1 3.27   4 3.28
   3  0.124  0.417  0.251-  67 1.95  73 1.95  83 1.95  66 1.96   4 3.17  51 3.17  20 3.18  14 3.18
                            24 3.18   1 3.18   9 3.19   8 3.19  10 3.19  17 3.19  25 3.19  19 3.20
   4  0.000  0.337  1.000- 114 1.96  66 1.96 128 1.96  71 1.97  55 3.17   7 3.17  58 3.17  10 3.17
                            51 3.17   3 3.17   5 3.18  20 3.18  52 3.18   1 3.24  50 3.28   2 3.28
   5  0.000  0.168  0.752-  71 1.95 117 1.95  69 1.95  68 1.96  50 3.16   2 3.16   8 3.17   4 3.18
                            54 3.18   6 3.18  55 3.19   7 3.19  21 3.20  53 3.20  63 3.22  15 3.22
   6  0.125  0.083  0.502-  65 1.95  78 1.95  84 1.95  68 1.95  15 3.16   1 3.16  21 3.16   5 3.18
                            17 3.18  11 3.19  22 3.19  32 3.19  54 3.19  16 3.19  24 3.19   8 3.20
   7  0.125  0.417  0.750-  71 1.94  77 1.95  87 1.95  70 1.95   8 3.16   4 3.17  20 3.17  14 3.17
                            24 3.18  29 3.18  13 3.18  10 3.18  23 3.19   5 3.19  21 3.20  55 3.20
   8  0.000  0.334  0.503-  67 1.94 118 1.95  70 1.95  68 1.95  55 3.16   7 3.16   1 3.16   5 3.17
                            62 3.18  14 3.18  51 3.19   3 3.19  56 3.19  24 3.19  54 3.20   6 3.20
   9  0.000  0.667  0.251-  75 1.95 121 1.95  73 1.95  72 1.96  12 3.17  16 3.17  62 3.18  14 3.18
                            58 3.18  10 3.18  51 3.19   3 3.19  25 3.19  57 3.19  59 3.20  11 3.20
  10  0.125  0.585  0.001-  66 1.93  72 1.95  88 1.95  77 1.96  28 3.17  12 3.17  25 3.17   4 3.17
                            29 3.18   9 3.18  13 3.18   7 3.18  26 3.19   3 3.19  20 3.19  58 3.20
  11  0.125  0.917  0.251-  65 1.94  75 1.95  91 1.95  74 1.96  16 3.17  32 3.17  17 3.18   2 3.18
                            12 3.19   6 3.19  27 3.19  59 3.19   9 3.20  28 3.20   1 3.20  25 3.20
  12  0.000  0.832  0.001-  72 1.94 122 1.95  74 1.95  79 1.96  50 3.15   2 3.15   9 3.17  58 3.17
                            10 3.17  13 3.18  59 3.19  11 3.19  63 3.19  15 3.19  60 3.20  28 3.20
  13  0.000  0.667  0.750- 125 1.95  77 1.95  79 1.95  76 1.96  12 3.18  62 3.18  14 3.18  58 3.18
                            10 3.18  63 3.18  15 3.18  16 3.18  55 3.18   7 3.18  29 3.19  61 3.19
  14  0.125  0.584  0.500-  70 1.94  76 1.95  92 1.95  73 1.95   7 3.17  25 3.18   3 3.18   9 3.18
                            29 3.18  13 3.18   8 3.18  16 3.19  32 3.19  24 3.19  30 3.19  62 3.19
  15  0.125  0.915  0.750-  69 1.95  79 1.95  78 1.95  95 1.95   2 3.13   6 3.16  32 3.17  16 3.17
                            13 3.18  29 3.18  12 3.19  28 3.19  31 3.19  63 3.19  21 3.21   5 3.22
  16  0.000  0.833  0.500-  76 1.95 126 1.95  78 1.95  75 1.95   9 3.17  63 3.17  15 3.17  59 3.17
                            11 3.17  13 3.18  62 3.19  14 3.19  32 3.19  64 3.19  54 3.19   6 3.19
  17  0.249  0.166  0.251-  65 1.94  83 1.95  81 1.95  80 1.96  24 3.17  22 3.18  11 3.18   1 3.18
                             6 3.18  20 3.19  18 3.19   3 3.19  27 3.20  19 3.20  33 3.20   2 3.23
  18  0.375  0.083  0.000-  90 1.94  85 1.95  96 1.96  80 1.97  21 3.18  31 3.18  27 3.18  37 3.18
                             2 3.19  33 3.19  28 3.19  17 3.19  44 3.19  36 3.20  34 3.20  20 3.20
  19  0.375  0.417  0.251-  83 1.95  89 1.95  99 1.95  82 1.96  24 3.17  26 3.18  40 3.18  30 3.18
                            36 3.18  20 3.18  33 3.19  25 3.19  41 3.19  35 3.19   3 3.20  17 3.20
  20  0.249  0.334  0.001-  66 1.94  82 1.95  87 1.96  80 1.96   7 3.17   3 3.18   4 3.18  19 3.18
                            21 3.18  23 3.19  17 3.19  10 3.19  26 3.19  18 3.20  36 3.20   2 3.24
  21  0.250  0.167  0.750-  87 1.95  69 1.95  85 1.95  84 1.95   6 3.16   2 3.17  22 3.18  18 3.18
                            24 3.18  20 3.18  23 3.18  37 3.19  31 3.19   7 3.20   5 3.20  15 3.21
  22  0.375  0.083  0.500-  84 1.95  94 1.95 100 1.95  81 1.96  33 3.17  17 3.18  27 3.18  21 3.18
                            37 3.18  31 3.18   6 3.19  38 3.19  40 3.19  48 3.19  32 3.19  24 3.19
  23  0.375  0.417  0.751-  93 1.95  87 1.95 103 1.95  86 1.96  26 3.18  36 3.18  40 3.18  30 3.18
                            24 3.18  21 3.18  20 3.19   7 3.19  29 3.19  45 3.19  37 3.19  39 3.19
  24  0.250  0.334  0.500-  70 1.95  84 1.95  86 1.95  83 1.96  19 3.17  17 3.17   3 3.18  21 3.18
                             7 3.18  23 3.18  30 3.19  14 3.19  40 3.19   8 3.19  22 3.19   6 3.19
  25  0.250  0.667  0.251-  73 1.95  91 1.95  89 1.95  88 1.96  10 3.17  28 3.18  14 3.18  32 3.18
                            30 3.18  26 3.18  19 3.19  41 3.19  27 3.19   9 3.19   3 3.19  11 3.20
  26  0.375  0.583  0.001-  88 1.94  82 1.95 104 1.95  93 1.96  19 3.18  23 3.18  41 3.18  45 3.18
                            28 3.18  25 3.18  29 3.18  36 3.18  42 3.19  10 3.19  20 3.19  44 3.19
  27  0.375  0.917  0.251-  91 1.95  81 1.95 107 1.95  90 1.96  32 3.17  22 3.18  48 3.18  28 3.18
                            18 3.18  44 3.18  11 3.19  25 3.19  43 3.19  41 3.19  33 3.19  17 3.20
  28  0.251  0.832  0.000-  88 1.94  74 1.95  90 1.95  95 1.96   2 3.16  10 3.17  29 3.17  25 3.18
                            31 3.18  27 3.18  44 3.18  26 3.18  18 3.19  15 3.19  11 3.20  12 3.20
  29  0.250  0.667  0.750-  77 1.95  95 1.95  93 1.95  92 1.95  28 3.17  30 3.17  10 3.18  14 3.18
                            32 3.18  15 3.18   7 3.18  26 3.18  45 3.19  23 3.19  31 3.19  13 3.19
  30  0.375  0.583  0.501-  86 1.95  92 1.95 108 1.95  89 1.96  29 3.17  41 3.18  25 3.18  45 3.18
                            23 3.18  19 3.18  24 3.19  32 3.19  40 3.19  46 3.19  48 3.19  14 3.19
  31  0.375  0.917  0.750-  95 1.95 111 1.95  85 1.95  94 1.96  48 3.18  28 3.18  18 3.18  32 3.18
                            22 3.18  44 3.18  47 3.19  29 3.19  45 3.19  15 3.19  37 3.19  21 3.19
  32  0.250  0.833  0.500-  92 1.95  78 1.95  94 1.95  91 1.95  15 3.17  27 3.17  11 3.17  25 3.18
                            29 3.18  31 3.18  14 3.19  30 3.19  48 3.19   6 3.19  22 3.19  16 3.19
  33  0.500  0.167  0.251-  99 1.95  81 1.95  97 1.95  96 1.96  22 3.17  38 3.17  40 3.18  36 3.18
                            18 3.19  34 3.19  19 3.19  35 3.19  27 3.19  43 3.19  17 3.20  49 3.20
  34  0.625  0.083  0.000- 106 1.94 101 1.95  96 1.96 112 1.97  53 3.18  47 3.18  43 3.18  37 3.18
                            50 3.19  33 3.19  60 3.19  49 3.19  44 3.19  36 3.20  18 3.20  52 3.20
  35  0.625  0.417  0.251- 115 1.95 105 1.95  99 1.95  98 1.96  56 3.17  42 3.18  40 3.18  46 3.18
                            36 3.18  52 3.18  33 3.19  57 3.19  41 3.19  19 3.19  51 3.20  49 3.20
  36  0.500  0.334  0.000-  82 1.95  98 1.95  96 1.95 103 1.96  23 3.18  39 3.18  37 3.18  19 3.18
                            35 3.18  33 3.18  26 3.18  42 3.18  18 3.20  34 3.20  20 3.20  52 3.20
  37  0.500  0.167  0.751- 103 1.95  85 1.95 101 1.95 100 1.96  40 3.18  36 3.18  22 3.18  38 3.18
                            18 3.18  34 3.18  21 3.19  53 3.19  23 3.19  39 3.19  31 3.19  47 3.19
  38  0.625  0.083  0.500- 116 1.95 110 1.95 100 1.95  97 1.96  33 3.17  49 3.18  43 3.18  53 3.18
                            37 3.18  47 3.18  54 3.19  22 3.19  40 3.19  48 3.19  64 3.19  56 3.19
  39  0.625  0.417  0.751- 109 1.95 119 1.95 103 1.95 102 1.96  42 3.18  36 3.18  40 3.18  46 3.18
                            56 3.18  53 3.18  52 3.19  55 3.19  61 3.19  45 3.19  37 3.19  23 3.19
  40  0.500  0.333  0.501-  86 1.95 102 1.95 100 1.95  99 1.96  33 3.18  23 3.18  39 3.18  37 3.18
                            19 3.18  35 3.18  30 3.19  46 3.19  24 3.19  56 3.19  22 3.19  38 3.19
  41  0.500  0.667  0.251-  89 1.95 105 1.95 107 1.95 104 1.96  30 3.18  46 3.18  48 3.18  26 3.18
                            42 3.18  44 3.18  25 3.19  57 3.19  19 3.19  35 3.19  27 3.19  43 3.19
  42  0.625  0.583  0.001- 120 1.94  98 1.95 104 1.95 109 1.96  35 3.18  39 3.18  41 3.18  45 3.18
                            60 3.18  57 3.18  61 3.18  36 3.18  26 3.19  58 3.19  52 3.19  44 3.19
  43  0.625  0.917  0.251- 123 1.95  97 1.95 107 1.95 106 1.96  64 3.17  38 3.18  48 3.18  60 3.18
                            34 3.18  44 3.18  59 3.19  57 3.19  27 3.19  41 3.19  33 3.19  49 3.20
  44  0.500  0.833  0.001- 104 1.95  90 1.95 106 1.95 111 1.96  45 3.18  28 3.18  60 3.18  41 3.18
                            31 3.18  47 3.18  27 3.18  43 3.18  18 3.19  34 3.19  26 3.19  42 3.19
  45  0.500  0.667  0.751-  93 1.95 109 1.95 111 1.95 108 1.96  30 3.18  46 3.18  44 3.18  48 3.18
                            26 3.18  42 3.18  29 3.19  61 3.19  23 3.19  39 3.19  31 3.19  47 3.19
  46  0.625  0.583  0.501- 102 1.95 124 1.95 108 1.95 105 1.96  61 3.17  41 3.18  57 3.18  45 3.18
                            39 3.18  35 3.18  56 3.19  64 3.19  40 3.19  30 3.19  48 3.19  62 3.19
  47  0.625  0.917  0.750- 127 1.95 111 1.95 101 1.95 110 1.96  48 3.18  60 3.18  34 3.18  64 3.18
                            38 3.18  44 3.18  31 3.19  61 3.19  45 3.19  63 3.19  37 3.19  53 3.19
  48  0.500  0.833  0.501- 108 1.95  94 1.95 110 1.95 107 1.96  31 3.18  47 3.18  27 3.18  43 3.18
                            41 3.18  45 3.18  32 3.19  64 3.19  30 3.19  46 3.19  22 3.19  38 3.19
  49  0.751  0.166  0.251- 113 1.94 115 1.95  97 1.95 112 1.96  56 3.17  38 3.18  59 3.18   1 3.18
                            54 3.18  52 3.19  34 3.19  51 3.19  43 3.20  35 3.20  33 3.20  50 3.23
  50  0.875  0.078  0.997- 122 1.93 117 1.94 112 1.97 128 2.03  63 3.13  12 3.15  60 3.16   5 3.16
                            53 3.17  59 3.18  34 3.19   2 3.19  49 3.23  52 3.24   1 3.27   4 3.28
  51  0.876  0.417  0.251-  67 1.95 121 1.95 115 1.95 114 1.96   4 3.17   3 3.17  52 3.18  62 3.18
                            56 3.18   1 3.18   9 3.19   8 3.19  58 3.19  49 3.19  57 3.19  35 3.20
  52  0.751  0.334  0.001- 114 1.94  98 1.95 119 1.96 112 1.96  55 3.17  51 3.18   4 3.18  35 3.18
                            53 3.18  39 3.19  49 3.19  58 3.19  42 3.19  34 3.20  36 3.20  50 3.24
  53  0.750  0.167  0.750- 119 1.95 117 1.95 101 1.95 116 1.95  54 3.16  50 3.17  38 3.18  34 3.18
                            56 3.18  52 3.18  39 3.18  37 3.19  47 3.19  55 3.20   5 3.20  63 3.21
  54  0.875  0.083  0.502- 113 1.95 126 1.95 116 1.95  68 1.95  63 3.16   1 3.16  53 3.16   5 3.18
                            49 3.18  59 3.19  38 3.19  64 3.19   6 3.19  16 3.19  56 3.19   8 3.20
  55  0.875  0.417  0.750-  71 1.94 125 1.95 119 1.95 118 1.95   8 3.16   4 3.17  52 3.17  62 3.17
                            56 3.18  61 3.18  13 3.18  58 3.18  39 3.19   5 3.19  53 3.20   7 3.20
  56  0.750  0.334  0.500- 118 1.95 116 1.95 102 1.95 115 1.96  35 3.17  49 3.17  51 3.18  53 3.18
                            55 3.18  39 3.18  46 3.19  62 3.19  40 3.19   8 3.19  38 3.19  54 3.19
  57  0.750  0.667  0.251- 121 1.95 123 1.95 105 1.95 120 1.96  58 3.17  60 3.18  62 3.18  64 3.18
                            46 3.18  42 3.18  35 3.19  41 3.19  43 3.19   9 3.19  51 3.19  59 3.20
  58  0.875  0.585  0.001- 114 1.93  72 1.95 120 1.95 125 1.96  60 3.17  12 3.17  57 3.17   4 3.17
                            61 3.18   9 3.18  13 3.18  55 3.18  42 3.19  51 3.19  52 3.19  10 3.20
  59  0.875  0.917  0.251- 113 1.94  75 1.95 123 1.95 122 1.96  16 3.17  64 3.17  49 3.18  50 3.18
                            12 3.19  54 3.19  43 3.19  11 3.19   9 3.20  60 3.20   1 3.20  57 3.20
  60  0.749  0.832  0.000- 120 1.94 122 1.95 106 1.95 127 1.96  50 3.16  58 3.17  61 3.17  57 3.18
                            47 3.18  43 3.18  44 3.18  42 3.18  34 3.19  63 3.19  59 3.20  12 3.20
  61  0.750  0.667  0.750- 125 1.95 127 1.95 109 1.95 124 1.95  60 3.17  46 3.17  58 3.18  62 3.18
                            64 3.18  63 3.18  55 3.18  42 3.18  45 3.19  39 3.19  47 3.19  13 3.19
  62  0.875  0.584  0.500- 118 1.94  76 1.95 124 1.95 121 1.95  55 3.17  57 3.18  51 3.18   9 3.18
                            61 3.18  13 3.18   8 3.18  16 3.19  64 3.19  56 3.19  46 3.19  14 3.19
  63  0.875  0.915  0.750- 117 1.95  79 1.95 126 1.95 127 1.95  50 3.13  54 3.16  64 3.17  16 3.17
                            13 3.18  61 3.18  12 3.19  60 3.19  47 3.19  15 3.19  53 3.21   5 3.22
  64  0.750  0.833  0.500- 124 1.95 126 1.95 110 1.95 123 1.95  63 3.17  43 3.17  59 3.17  57 3.18
                            61 3.18  47 3.18  62 3.19  46 3.19  48 3.19  54 3.19  38 3.19  16 3.19
  65  0.126  0.083  0.315-  17 1.94  11 1.94   6 1.95   1 1.96
  66  0.126  0.419  0.062-  10 1.93  20 1.94   4 1.96   3 1.96
  67  0.000  0.335  0.316-   8 1.94  51 1.95   3 1.95   1 1.96
  68  0.000  0.167  0.563-  54 1.95   6 1.95   8 1.95   5 1.96
  69  0.126  0.082  0.809-   2 1.94  15 1.95  21 1.95   5 1.95
  70  0.126  0.417  0.562-  14 1.94  24 1.95   8 1.95   7 1.95
  71  0.000  0.335  0.810-  55 1.94   7 1.94   5 1.95   4 1.97
  72  0.000  0.667  0.062-  12 1.94  58 1.95  10 1.95   9 1.96
  73  0.125  0.584  0.312-  25 1.95   9 1.95   3 1.95  14 1.95
  74  0.126  0.914  0.062-   2 1.93  28 1.95  12 1.95  11 1.96
  75  0.000  0.833  0.311-   9 1.95  59 1.95  11 1.95  16 1.95
  76  0.000  0.667  0.562-  16 1.95  62 1.95  14 1.95  13 1.96
  77  0.125  0.584  0.812-  29 1.95   7 1.95  13 1.95  10 1.96
  78  0.125  0.916  0.562-  32 1.95  16 1.95  15 1.95   6 1.95
  79  0.000  0.833  0.812-  63 1.95  15 1.95  13 1.95  12 1.96
  80  0.248  0.166  0.062-  20 1.96  17 1.96   2 1.97  18 1.97
  81  0.375  0.083  0.311-  33 1.95  27 1.95  17 1.95  22 1.96
  82  0.375  0.416  0.062-  36 1.95  26 1.95  20 1.95  19 1.96
  83  0.250  0.333  0.311-  17 1.95  19 1.95   3 1.95  24 1.96
  84  0.250  0.167  0.562-  22 1.95  24 1.95   6 1.95  21 1.95
  85  0.375  0.083  0.812-  31 1.95  21 1.95  37 1.95  18 1.95
  86  0.375  0.417  0.562-  30 1.95  40 1.95  24 1.95  23 1.96
  87  0.250  0.333  0.812-  21 1.95  23 1.95   7 1.95  20 1.96
  88  0.251  0.667  0.062-  28 1.94  26 1.94  10 1.95  25 1.96
  89  0.375  0.583  0.312-  19 1.95  41 1.95  25 1.95  30 1.96
  90  0.375  0.917  0.062-  18 1.94  28 1.95  44 1.95  27 1.96
  91  0.250  0.833  0.312-  27 1.95  25 1.95  11 1.95  32 1.95
  92  0.250  0.667  0.562-  32 1.95  30 1.95  14 1.95  29 1.95
  93  0.375  0.583  0.812-  23 1.95  45 1.95  29 1.95  26 1.96
  94  0.375  0.917  0.562-  22 1.95  48 1.95  32 1.95  31 1.96
  95  0.250  0.833  0.812-  31 1.95  29 1.95  15 1.95  28 1.96
  96  0.500  0.167  0.062-  36 1.95  18 1.96  34 1.96  33 1.96
  97  0.625  0.083  0.311-  33 1.95  43 1.95  49 1.95  38 1.96
  98  0.625  0.416  0.062-  36 1.95  42 1.95  52 1.95  35 1.96
  99  0.500  0.333  0.312-  33 1.95  19 1.95  35 1.95  40 1.96
 100  0.500  0.167  0.562-  40 1.95  22 1.95  38 1.95  37 1.96
 101  0.625  0.083  0.812-  47 1.95  53 1.95  37 1.95  34 1.95
 102  0.625  0.417  0.562-  46 1.95  40 1.95  56 1.95  39 1.96
 103  0.500  0.333  0.812-  37 1.95  23 1.95  39 1.95  36 1.96
 104  0.500  0.667  0.062-  44 1.95  26 1.95  42 1.95  41 1.96
 105  0.625  0.583  0.312-  35 1.95  41 1.95  57 1.95  46 1.96
 106  0.625  0.917  0.062-  34 1.94  60 1.95  44 1.95  43 1.96
 107  0.500  0.833  0.312-  27 1.95  43 1.95  41 1.95  48 1.96
 108  0.500  0.667  0.562-  48 1.95  30 1.95  46 1.95  45 1.96
 109  0.625  0.583  0.812-  39 1.95  45 1.95  61 1.95  42 1.96
 110  0.625  0.917  0.562-  38 1.95  48 1.95  64 1.95  47 1.96
 111  0.500  0.833  0.812-  45 1.95  31 1.95  47 1.95  44 1.96
 112  0.752  0.166  0.062-  52 1.96  49 1.96  50 1.97  34 1.97
 113  0.874  0.083  0.315-  49 1.94  59 1.94  54 1.95   1 1.96
 114  0.874  0.419  0.062-  58 1.93  52 1.94   4 1.96  51 1.96
 115  0.750  0.333  0.311-  49 1.95  35 1.95  51 1.95  56 1.96
 116  0.750  0.167  0.562-  38 1.95  56 1.95  54 1.95  53 1.95
 117  0.874  0.082  0.809-  50 1.94  63 1.95  53 1.95   5 1.95
 118  0.874  0.417  0.562-  62 1.94  56 1.95   8 1.95  55 1.95
 119  0.750  0.333  0.812-  53 1.95  39 1.95  55 1.95  52 1.96
 120  0.749  0.667  0.062-  60 1.94  42 1.94  58 1.95  57 1.96
 121  0.875  0.584  0.312-  57 1.95   9 1.95  51 1.95  62 1.95
 122  0.874  0.914  0.062-  50 1.93  60 1.95  12 1.95  59 1.96
 123  0.750  0.833  0.312-  43 1.95  57 1.95  59 1.95  64 1.95
 124  0.750  0.667  0.562-  64 1.95  46 1.95  62 1.95  61 1.95
 125  0.875  0.584  0.812-  61 1.95  55 1.95  13 1.95  58 1.96
 126  0.875  0.916  0.562-  64 1.95  16 1.95  63 1.95  54 1.95
 127  0.750  0.833  0.812-  47 1.95  61 1.95  63 1.95  60 1.96
 128  0.000  0.171  0.065-   4 1.96   1 1.96  50 2.03   2 2.03
 
  LATTYP: Found a simple orthorhombic cell.
 ALAT       =    10.3624043883
 B/A-ratio  =     1.0668844541
 C/A-ratio  =     1.2319320532
  
  Lattice vectors:
  
 A1 = (   0.0000000000,   0.0000000000, -10.3624043883)
 A2 = (   0.0000000000, -11.0554881486,   0.0000000000)
 A3 = ( -12.7657781141,   0.0000000000,   0.0000000000)


Analysis of symmetry for initial positions (statically):
=====================================================================
 Subroutine PRICEL returns:
 Original cell was already a primitive cell.
 

 Routine SETGRP: Setting up the symmetry group for a 
 simple orthorhombic supercell.


 Subroutine GETGRP returns: Found  2 space group operations
 (whereof  2 operations were pure point group operations)
 out of a pool of  8 trial point group operations.


The static configuration has the point symmetry C_1h.


Analysis of symmetry for dynamics (positions and initial velocities):
=====================================================================
 Subroutine PRICEL returns:
 Original cell was already a primitive cell.
 

 Routine SETGRP: Setting up the symmetry group for a 
 simple orthorhombic supercell.


 Subroutine GETGRP returns: Found  2 space group operations
 (whereof  2 operations were pure point group operations)
 out of a pool of  8 trial point group operations.


The dynamic configuration has the point symmetry C_1h.


Analysis of structural, dynamic, and magnetic symmetry:
=====================================================================
 Subroutine PRICEL returns:
 Original cell was already a primitive cell.
 

 Routine SETGRP: Setting up the symmetry group for a 
 simple orthorhombic supercell.


 Subroutine GETGRP returns: Found  2 space group operations
 (whereof  2 operations were pure point group operations)
 out of a pool of  8 trial point group operations.


The magnetic configuration has the point symmetry C_1h.


 Subroutine INISYM returns: Found  2 space group operations
 (whereof  2 operations are pure point group operations),
 and found     1 'primitive' translations

 
 
 KPOINTS: Automatic generation                    

Automatic generation of k-mesh.
Space group operators:
 irot       det(A)        alpha          n_x          n_y          n_z        tau_x        tau_y        tau_z
    1     1.000000     0.000000     1.000000     0.000000     0.000000     0.000000     0.000000     0.000000
    2    -1.000000   180.000000     1.000000     0.000000     0.000000     0.000000     0.000000     0.000000
 
 Subroutine IBZKPT returns following result:
 ===========================================
 
 Found      1 irreducible k-points:
 
 Following reciprocal coordinates:
            Coordinates               Weight
  0.000000  0.000000  0.000000      1.000000
 
 Following cartesian coordinates:
            Coordinates               Weight
  0.000000  0.000000  0.000000      1.000000
 
 
 Subroutine IBZKPT_HF returns following result:
 ==============================================
 
 Found      1 k-points in 1st BZ
 the following      1 k-points will be used (e.g. in the exchange kernel)
 Following reciprocal coordinates:   # in IRBZ
  0.000000  0.000000  0.000000    1.00000000   1 t-inv F


--------------------------------------------------------------------------------------------------------




 Dimension of arrays:
   k-points           NKPTS =      1   k-points in BZ     NKDIM =      1   number of bands    NBANDS=    384
   number of dos      NEDOS =    301   number of ions     NIONS =    128
   non local maximal  LDIM  =      5   non local SUM 2l+1 LMDIM =     13
   total plane-waves  NPLWV = 423360
   max r-space proj   IRMAX =      1   max aug-charges    IRDMAX=  21003
   dimension x,y,z NGX =    84 NGY =   72 NGZ =   70
   dimension x,y,z NGXF=   168 NGYF=  144 NGZF=  140
   support grid    NGXF=   168 NGYF=  144 NGZF=  140
   ions per type =              64  63   1
   NGX,Y,Z   is equivalent  to a cutoff of  10.94, 10.83, 11.23 a.u.
   NGXF,Y,Z  is equivalent  to a cutoff of  21.88, 21.65, 22.46 a.u.

 SYSTEM =  GaN                                     
 POSCAR =  C_N1                                    

 Startparameter for this run:
   NWRITE =      2    write-flag & timer
   PREC   = accura    normal or accurate (medium, high low for compatibility)
   ISTART =      0    job   : 0-new  1-cont  2-samecut
   ICHARG =      1    charge: 1-file 2-atom 10-const
   ISPIN  =      2    spin polarized calculation?
   LNONCOLLINEAR =      F non collinear calculations
   LSORBIT =      F    spin-orbit coupling
   INIWAV =      1    electr: 0-lowe 1-rand  2-diag
   LASPH  =      F    aspherical Exc in radial PAW
   METAGGA=      F    non-selfconsistent MetaGGA calc.

 Electronic Relaxation 1
   ENCUT  =  400.0 eV  29.40 Ry    5.42 a.u.  20.82 18.03 16.90*2*pi/ulx,y,z
   ENINI  =  400.0     initial cutoff
   ENAUG  =  644.9 eV  augmentation charge cutoff
   NELM   =     60;   NELMIN=  2; NELMDL= -5     # of ELM steps 
   EDIFF  = 0.1E-04   stopping-criterion for ELM
   LREAL  =      F    real-space projection
   NLSPLINE    = F    spline interpolate recip. space projectors
   LCOMPAT=      F    compatible to vasp.4.4
   GGA_COMPAT  = T    GGA compatible to vasp.4.4-vasp.4.6
   LMAXPAW     = -100 max onsite density
   LMAXMIX     =    2 max onsite mixed and CHGCAR
   VOSKOWN=      0    Vosko Wilk Nusair interpolation
   ROPT   =    0.00000   0.00000   0.00000
 Ionic relaxation
   EDIFFG = -.2E-01   stopping-criterion for IOM
   NSW    =      0    number of steps for IOM
   NBLOCK =      1;   KBLOCK =      1    inner block; outer block 
   IBRION =     -1    ionic relax: 0-MD 1-quasi-New 2-CG
   NFREE  =      0    steps in history (QN), initial steepest desc. (CG)
   ISIF   =      0    stress and relaxation
   IWAVPR =     10    prediction:  0-non 1-charg 2-wave 3-comb
   ISYM   =      3    0-nonsym 1-usesym 2-fastsym
   LCORR  =      T    Harris-Foulkes like correction to forces

   POTIM  = 0.5000    time-step for ionic-motion
   TEIN   =    0.0    initial temperature
   TEBEG  =    0.0;   TEEND  =   0.0 temperature during run
   SMASS  =  -3.00    Nose mass-parameter (am)
   estimated Nose-frequenzy (Omega)   =  0.10E-29 period in steps =****** mass=  -0.372E-26a.u.
   SCALEE = 1.0000    scale energy and forces
   NPACO  =    256;   APACO  = 16.0  distance and # of slots for P.C.
   PSTRESS=    0.0 pullay stress

  Mass of Ions in am
   POMASS =  69.72 14.00 12.01
  Ionic Valenz
   ZVAL   =   3.00  5.00  4.00
  Atomic Wigner-Seitz radii
   RWIGS  =  -1.00 -1.00 -1.00
  virtual crystal weights 
   VCA    =   1.00  1.00  1.00
   NELECT =     511.0000    total number of electrons
   NUPDOWN=      -1.0000    fix difference up-down

 DOS related values:
   EMIN   =  10.00;   EMAX   =-10.00  energy-range for DOS
   EFERMI =   0.00
   ISMEAR =     0;   SIGMA  =   0.05  broadening in eV -4-tet -1-fermi 0-gaus

 Electronic relaxation 2 (details)
   IALGO  =     53    algorithm
   LDIAG  =      T    sub-space diagonalisation (order eigenvalues)
   LSUBROT=      F    optimize rotation matrix (better conditioning)
   TURBO    =      0    0=normal 1=particle mesh
   IRESTART =      0    0=no restart 2=restart with 2 vectors
   NREBOOT  =      0    no. of reboots
   NMIN     =      0    reboot dimension
   EREF     =   0.00    reference energy to select bands
   IMIX   =      4    mixing-type and parameters
     AMIX     =   0.40;   BMIX     =  1.00
     AMIX_MAG =   1.60;   BMIX_MAG =  1.00
     AMIN     =   0.10
     WC   =   100.;   INIMIX=   1;  MIXPRE=   1;  MAXMIX= -45

 Intra band minimization:
   WEIMIN = 0.0000     energy-eigenvalue tresh-hold
   EBREAK =  0.65E-08  absolut break condition
   DEPER  =   0.30     relativ break condition  

   TIME   =   0.20     timestep for ELM

  volume/ion in A,a.u.               =      11.43        77.10
  Fermi-wavevector in a.u.,A,eV,Ry     =   1.153063  2.178974 18.089699  1.329555
  Thomas-Fermi vector in A             =   2.289710
 
 Write flags
   LWAVE        =      T    write WAVECAR
   LDOWNSAMPLE  =      F    k-point downsampling of WAVECAR
   LCHARG       =      T    write CHGCAR
   LVTOT        =      F    write LOCPOT, total local potential
   LVHAR        =      F    write LOCPOT, Hartree potential only
   LELF         =      F    write electronic localiz. function (ELF)
   LORBIT       =     10    0 simple, 1 ext, 2 COOP (PROOUT), +10 PAW based schemes


 Dipole corrections
   LMONO  =      F    monopole corrections only (constant potential shift)
   LDIPOL =      F    correct potential (dipole corrections)
   IDIPOL =      0    1-x, 2-y, 3-z, 4-all directions 
   EPSILON=  1.0000000 bulk dielectric constant

 Exchange correlation treatment:
   GGA     =    PE    GGA type
   LEXCH   =     8    internal setting for exchange type
   VOSKOWN=      0    Vosko Wilk Nusair interpolation
   EXXOEP  =     0    0=HF, 1=EXX-LHF (local Hartree Fock) 2=EXX OEP
   LHFCALC =     T    Hartree Fock is set to
   LSYMGRAD=     F    symmetrize gradient (conserves proper symmetry)
   PRECFOCK=fast      Normal, Fast or Accurate (Low or Medium for compatibility)
   LRHFCALC=     F    long range Hartree Fock
   LRSCOR  =     F    long range correlation only (use DFT for short range part)
   LTHOMAS =     F    Thomas Fermi screening in HF
   LMODELHF=     F    short range full HF, long range fraction AEXX
   ENCUT4O =  -1.0   cutoff for four orbital integrals eV
   LMAXFOCK=     4    L truncation for augmentation on plane wave grid
   LMAXFOCKAE=  -1    L truncation for all-electron charge restoration on plane wave grid
   NMAXFOCKAE=   1    number of basis functions for all-electron charge restoration
   LFOCKAEDFT=     F  apply the AE augmentation even for DFT
   NKREDX  =     1    reduce k-point grid by
   NKREDY  =     1    reduce k-point grid by
   NKREDZ  =     1    reduce k-point grid by
   SHIFTRED=     F    shift reduced grid of Gamma
   HFKIDENT=     F    idential grid for each k-point
   ODDONLY =     F    use only odd q-grid points
   EVENONLY=     F    use only even q-grid points
   HFALPHA =   -1.0000 decay constant for conv. correction
   MCALPHA =    0.0000 extent of test-charge in conv. correction in multipole expansion
   AEXX    =    0.3100 exact exchange contribution
   HFSCREEN=    0.2000 screening length (either q_TF or 0.3 A-1)
   HFSCREENC=   0.2000 screening length for correlation (either q_TF or 0.3 A-1)
   HFRCUT  =    0.0000 spherical cutoff for potential kernel
   ALDAX   =    0.6900 LDA exchange part
   AGGAX   =    0.6900 GGA exchange part
   ALDAC   =    1.0000 LDA correlation
   AGGAC   =    1.0000 GGA correlation
   ENCUTFOCK=  -1.0 apply spherical cutoff to Coloumb kernel
   NBANDSGWLOW=     1    first orbital included in HF term
   NBLOCK_FOCK=    64    blocking factor in FOCK_ACC
 Linear response parameters
   LEPSILON=     F    determine dielectric tensor
   LRPA    =     F    only Hartree local field effects (RPA)
   LNABLA  =     F    use nabla operator in PAW spheres
   LVEL    =     F    velocity operator in full k-point grid
   LINTERFAST=   F  fast interpolation
   KINTER  =     0    interpolate to denser k-point grid
   CSHIFT  =0.1000    complex shift for real part using Kramers Kronig
   OMEGAMAX=  -1.0    maximum frequency
   DEG_THRESHOLD= 0.2000000E-02 threshold for treating states as degnerate
   RTIME   =   -0.100 relaxation time in fs
  (WPLASMAI=    0.000 imaginary part of plasma frequency in eV, 0.658/RTIME)
   DFIELD  = 0.0000000 0.0000000 0.0000000 field for delta impulse in time
 
 Orbital magnetization related:
   ORBITALMAG=     F  switch on orbital magnetization
   LCHIMAG   =     F  perturbation theory with respect to B field
   DQ        =  0.001000  dq finite difference perturbation B field
   LLRAUG    =     F  two centre corrections for induced B field



--------------------------------------------------------------------------------------------------------


 Static calculation
 charge density and potential will be updated during run
 spin polarized calculation
 Conjugate gradient for all bands (Freysoldt, et al. PRB 79, 241103 (2009))
 perform sub-space diagonalisation
    before iterative eigenvector-optimisation
 modified Broyden-mixing scheme, WC =      100.0
 initial mixing is a Kerker type mixing with AMIX =  0.4000 and BMIX =      1.0000
 Hartree-type preconditioning will be used
 using additional bands          128
 reciprocal scheme for non local part
 use partial core corrections
 no Harris-corrections to forces 
 use gradient corrections 
 use of overlap-Matrix (Vanderbilt PP)
 Gauss-broadening in eV      SIGMA  =   0.05


--------------------------------------------------------------------------------------------------------


  energy-cutoff  :      400.00
  volume of cell :     1462.47
      direct lattice vectors                 reciprocal lattice vectors
    12.765778114  0.000000000  0.000000000     0.078334434  0.000000000  0.000000000
     0.000000000 11.055488149  0.000000000     0.000000000  0.090452813  0.000000000
     0.000000000  0.000000000 10.362404388     0.000000000  0.000000000  0.096502700

  length of vectors
    12.765778114 11.055488149 10.362404388     0.078334434  0.090452813  0.096502700


 
 k-points in units of 2pi/SCALE and weight: Automatic generation                    
   0.00000000  0.00000000  0.00000000       1.000
 
 k-points in reciprocal lattice and weights: Automatic generation                    
   0.00000000  0.00000000  0.00000000       1.000
 
 position of ions in fractional coordinates (direct lattice) 
   0.00000000  0.16752731  0.25471232
   0.12511071  0.07785986  0.99659447
   0.12435565  0.41674094  0.25084540
   0.00000000  0.33682851  0.99959886
   0.00000000  0.16778663  0.75169371
   0.12511430  0.08323469  0.50248958
   0.12534789  0.41749170  0.75039492
   0.00000000  0.33431227  0.50274742
   0.00000000  0.66664310  0.25064974
   0.12543787  0.58462755  0.00066754
   0.12500914  0.91705757  0.25113684
   0.00000000  0.83233612  0.00081358
   0.00000000  0.66651023  0.75042147
   0.12509373  0.58351166  0.50040936
   0.12502775  0.91534147  0.74957739
   0.00000000  0.83301030  0.50004365
   0.24897410  0.16632342  0.25133364
   0.37469798  0.08304651  0.00042467
   0.37486215  0.41656905  0.25062643
   0.24894466  0.33383396  0.00079622
   0.25043478  0.16713200  0.75027970
   0.37499617  0.08343578  0.50035132
   0.37497575  0.41665983  0.75055800
   0.25002869  0.33361078  0.50025378
   0.25006274  0.66656768  0.25072241
   0.37516479  0.58287003  0.00067002
   0.37499051  0.91660320  0.25078523
   0.25095993  0.83226818  0.00043585
   0.25024778  0.66657126  0.75030972
   0.37506110  0.58335762  0.50060519
   0.37506416  0.91659719  0.75038456
   0.25015847  0.83321074  0.50033717
   0.50000000  0.16683748  0.25097765
   0.62530204  0.08304651  0.00042467
   0.62513787  0.41656905  0.25062643
   0.50000000  0.33353596  0.00041758
   0.50000000  0.16674163  0.75050144
   0.62500384  0.08343578  0.50035132
   0.62502426  0.41665983  0.75055800
   0.50000000  0.33349144  0.50065303
   0.50000000  0.66652119  0.25073548
   0.62483522  0.58287003  0.00067002
   0.62500951  0.91660320  0.25078523
   0.50000000  0.83318637  0.00057060
   0.50000000  0.66657752  0.75057559
   0.62493891  0.58335762  0.50060519
   0.62493586  0.91659719  0.75038456
   0.50000000  0.83333901  0.50060502
   0.75102590  0.16632342  0.25133364
   0.87488930  0.07785986  0.99659447
   0.87564436  0.41674094  0.25084540
   0.75105534  0.33383396  0.00079622
   0.74956522  0.16713200  0.75027970
   0.87488571  0.08323469  0.50248958
   0.87465212  0.41749170  0.75039492
   0.74997131  0.33361078  0.50025378
   0.74993726  0.66656768  0.25072241
   0.87456214  0.58462755  0.00066754
   0.87499087  0.91705757  0.25113684
   0.74904007  0.83226818  0.00043585
   0.74975222  0.66657126  0.75030972
   0.87490629  0.58351166  0.50040936
   0.87497227  0.91534147  0.74957739
   0.74984153  0.83321074  0.50033717
   0.12560937  0.08256949  0.31471993
   0.12572469  0.41942051  0.06199246
   0.00000000  0.33512127  0.31553517
   0.00000000  0.16702773  0.56292356
   0.12554478  0.08223383  0.80934684
   0.12570046  0.41739190  0.56205950
   0.00000000  0.33534359  0.80978971
   0.00000000  0.66667406  0.06198377
   0.12509553  0.58359927  0.31182866
   0.12570300  0.91415755  0.06203100
   0.00000000  0.83331031  0.31141608
   0.00000000  0.66664912  0.56171099
   0.12522921  0.58397264  0.81180514
   0.12501373  0.91592236  0.56157809
   0.00000000  0.83304984  0.81198246
   0.24777745  0.16630127  0.06171761
   0.37491391  0.08338625  0.31137524
   0.37490155  0.41617099  0.06177159
   0.24985866  0.33320067  0.31137949
   0.25047311  0.16713461  0.56196514
   0.37508231  0.08320520  0.81198181
   0.37508624  0.41684619  0.56176512
   0.25003927  0.33335071  0.81207673
   0.25088529  0.66673608  0.06204247
   0.37506748  0.58313337  0.31184579
   0.37516677  0.91696991  0.06186225
   0.25013772  0.83319881  0.31167974
   0.25018110  0.66680503  0.56167106
   0.37511278  0.58314703  0.81183141
   0.37504553  0.91687085  0.56166347
   0.25032227  0.83308226  0.81169885
   0.50000000  0.16684680  0.06185502
   0.62508610  0.08338625  0.31137524
   0.62509846  0.41617099  0.06177159
   0.50000000  0.33333952  0.31179221
   0.50000000  0.16675741  0.56170917
   0.62491771  0.08320520  0.81198181
   0.62491377  0.41684619  0.56176512
   0.50000000  0.33322407  0.81171614
   0.50000000  0.66662890  0.06185536
   0.62493253  0.58313337  0.31184579
   0.62483324  0.91696991  0.06186225
   0.50000000  0.83321162  0.31176457
   0.50000000  0.66684239  0.56180896
   0.62488723  0.58314703  0.81183141
   0.62495448  0.91687085  0.56166347
   0.50000000  0.83323231  0.81180083
   0.75222255  0.16630127  0.06171761
   0.87439064  0.08256949  0.31471993
   0.87427533  0.41942051  0.06199246
   0.75014134  0.33320067  0.31137949
   0.74952689  0.16713461  0.56196514
   0.87445523  0.08223383  0.80934684
   0.87429956  0.41739190  0.56205950
   0.74996073  0.33335071  0.81207673
   0.74911471  0.66673608  0.06204247
   0.87490448  0.58359927  0.31182866
   0.87429702  0.91415755  0.06203100
   0.74986228  0.83319881  0.31167974
   0.74981890  0.66680503  0.56167106
   0.87477080  0.58397264  0.81180514
   0.87498629  0.91592236  0.56157809
   0.74967773  0.83308226  0.81169885
   0.00000000  0.17089710  0.06528132
 
 position of ions in cartesian coordinates  (Angst):
   0.00000000  1.85209620  2.63943202
   1.59713555  0.86077877 10.32711493
   1.58749665  4.60727452  2.59936146
   0.00000000  3.72380356 10.35824763
   0.00000000  1.85496305  7.78935423
   1.59718140  0.92020009  5.20700019
   1.60016339  4.61557457  7.77589564
   0.00000000  3.69598535  5.20967210
   0.00000000  7.37006487  2.59733394
   1.60131202  6.46334297  0.00691734
   1.59583897 10.13851911  2.60238146
   0.00000000  9.20188208  0.00843065
   0.00000000  7.36859600  7.77617077
   1.59691875  6.45100619  5.18544410
   1.59607650 10.11954680  7.76742403
   0.00000000  9.20933555  5.18165446
   3.17834806  1.83878660  2.60442077
   4.78331126  0.91811972  0.00440065
   4.78540697  4.60537420  2.59709240
   3.17797227  3.69069744  0.00825074
   3.19699483  1.84772585  7.77470171
   4.78711794  0.92242331  5.18484273
   4.78685728  4.60637779  7.77758554
   3.19181072  3.68823002  5.18383198
   3.19224545  7.36923114  2.59808704
   4.78927048  6.44391275  0.00694304
   4.78704562 10.13349584  2.59873793
   3.20369879  9.20113101  0.00451650
   3.19460766  7.36927063  7.77501276
   4.78794682  6.44930326  5.18747346
   4.78798580 10.13342939  7.77578821
   3.19346757  9.21155143  5.18469614
   6.38288906  1.84446976  2.60073191
   7.98246703  0.91811972  0.00440065
   7.98037132  4.60537420  2.59709240
   6.38288906  3.68740284  0.00432717
   6.38288906  1.84341013  7.77699942
   7.97866036  0.92242331  5.18484273
   7.97892101  4.60637779  7.77758554
   6.38288906  3.68691063  5.18796916
   6.38288906  7.36871713  2.59822241
   7.97650781  6.44391275  0.00694304
   7.97873267 10.13349584  2.59873793
   6.38288906  9.21128205  0.00591274
   6.38288906  7.36933983  7.77776779
   7.97783147  6.44930326  5.18747346
   7.97779249 10.13342939  7.77578821
   6.38288906  9.21296955  5.18747165
   9.58743006  1.83878660  2.60442077
  11.16864274  0.86077877 10.32711493
  11.17828165  4.60727452  2.59936146
   9.58780585  3.69069744  0.00825074
   9.56878329  1.84772585  7.77470171
  11.16859689  0.92020009  5.20700019
  11.16561490  4.61557457  7.77589564
   9.57396739  3.68823002  5.18383198
   9.57353267  7.36923114  2.59808704
  11.16446627  6.46334297  0.00691734
  11.16993932 10.13851911  2.60238146
   9.56207932  9.20113101  0.00451650
   9.57117046  7.36927063  7.77501276
  11.16885954  6.45100619  5.18544410
  11.16970180 10.11954680  7.76742403
   9.57231054  9.21155143  5.18469614
   1.60350135  0.91284600  3.26125522
   1.60497345  4.63689851  0.64239095
   0.00000000  3.70492922  3.26970304
   0.00000000  1.84657307  5.83324153
   1.60267680  0.90913515  8.38677921
   1.60466414  4.61447122  5.82428785
   0.00000000  3.70738704  8.39136842
   0.00000000  7.37040721  0.64230092
   1.59694184  6.45197481  3.23129466
   1.60469659 10.10645799  0.64279026
   0.00000000  9.21265221  3.22701938
   0.00000000  7.37013146  5.82067639
   1.59864835  6.45610258  8.41225310
   1.59589751 10.12596879  5.81929923
   0.00000000  9.20977264  8.41409056
   3.16307197  1.83854170  0.63954284
   4.78606780  0.92187572  3.22659615
   4.78591006  4.60097345  0.64010216
   3.18964018  3.68369603  3.22664019
   3.19748412  1.84775472  5.82331008
   4.78821749  0.91987414  8.41408383
   4.78826773  4.60843810  5.82123732
   3.19194584  3.68535477  8.41506742
   3.20274598  7.37109284  0.64290912
   4.78802823  6.44682404  3.23147222
   4.78929576 10.13754994  0.64104160
   3.19320260  9.21141952  3.22975148
   3.19375643  7.37185506  5.82026261
   4.78860657  6.44697505  8.41252539
   4.78774804 10.13645484  5.82018403
   3.19555853  9.21013107  8.41115171
   6.38288906  1.84457277  0.64096677
   7.97971050  0.92187572  3.22659615
   7.97986823  4.60097345  0.64010216
   6.38288906  3.68523114  3.23091701
   6.38288906  1.84358456  5.82065760
   7.97756080  0.91987414  8.41408383
   7.97751056  4.60843810  5.82123732
   6.38288906  3.68395475  8.41133092
   6.38288906  7.36990785  0.64097023
   7.97775006  6.44682404  3.23147222
   7.97648253 10.13754994  0.64104160
   6.38288906  9.21156120  3.23063050
   6.38288906  7.37226812  5.82169163
   7.97717172  6.44697505  8.41252539
   7.97803026 10.13645484  5.82018403
   6.38288906  9.21178998  8.41220853
   9.60270614  1.83854170  0.63954284
  11.16227695  0.91284600  3.26125522
  11.16080484  4.63689851  0.64239095
   9.57613794  3.68369603  3.22664019
   9.56829399  1.84775472  5.82331008
  11.16310149  0.90913515  8.38677921
  11.16111415  4.61447122  5.82428785
   9.57383228  3.68535477  8.41506742
   9.56303214  7.37109284  0.64290912
  11.16883645  6.45197481  3.23129466
  11.16108170 10.10645799  0.64279026
   9.57257552  9.21141952  3.22975148
   9.57202168  7.37185506  5.82026261
  11.16712994  6.45610258  8.41225310
  11.16988078 10.12596879  5.81929923
   9.57021958  9.21013107  8.41115171
   0.00000000  1.88935084  0.67647147
 


--------------------------------------------------------------------------------------------------------


 k-point  1 :   0.0000 0.0000 0.0000  plane waves:   26569

 maximum and minimum number of plane-waves per node :      3329     3315

 maximum number of plane-waves:     26569
 maximum index in each direction: 
   IXMAX=   20   IYMAX=   18   IZMAX=   16
   IXMIN=  -20   IYMIN=  -18   IZMIN=  -16


 parallel 3D FFT for wavefunctions:
    minimum data exchange during FFTs selected (reduces bandwidth)
 parallel 3D FFT for charge:
    minimum data exchange during FFTs selected (reduces bandwidth)


 FFT grid for exact exchange (Hartree Fock) 
  NGX = 48; NGY = 40; NGZ = 36

 
 Radii for the augmentation spheres in the non-local exchange
 for species   1 augmentation radius   1.723 (default was   1.277)
       energy cutoff for augmentation   1600.0
 for species   2 augmentation radius   0.957 (default was   0.709)
       energy cutoff for augmentation   1600.0
 for species   3 augmentation radius   0.944 (default was   0.699)
       energy cutoff for augmentation   1600.0

 real space projection operators:
  total allocation   :      13439.09 KBytes
  max/ min on nodes  :       1688.16       1671.68

 Maximum index for augmentation-charges in exchange          149
  SETUP_FOCK is finished

 total amount of memory used by VASP MPI-rank0    72629. kBytes
=======================================================================

   base      :      30000. kBytes
   nonl-proj :       7835. kBytes
   fftplans  :       4191. kBytes
   grid      :       9844. kBytes
   one-center:        259. kBytes
   HF        :         67. kBytes
   nonlr-proj:       4362. kBytes
   wavefun   :      16071. kBytes
 
     INWAV:  cpu time    0.0000: real time    0.0001
 Broyden mixing: mesh for mixing (old mesh)
   NGX = 41   NGY = 37   NGZ = 33
  (NGX  =168   NGY  =144   NGZ  =140)
  gives a total of  50061 points

 initial charge density was supplied:
 charge density of overlapping atoms calculated
 number of electron     511.0000000 magnetization     128.0000000
 keeping initial charge density in first step


--------------------------------------------------------------------------------------------------------


 Maximum index for augmentation-charges          908 (set IRDMAX)


--------------------------------------------------------------------------------------------------------


 First call to EWALD:  gamma=   0.156
 Maximum number of real-space cells 2x 3x 3
 Maximum number of reciprocal cells 3x 3x 3

    FEWALD:  cpu time    0.0047: real time    0.0047


--------------------------------------- Iteration      1(   1)  ---------------------------------------


    POTLOK:  cpu time    0.2887: real time    0.2920
    SETDIJ:  cpu time    0.2748: real time    0.2749
    TRIAL :  cpu time    5.0546: real time    7.6976
    CORREC:  cpu time    0.0008: real time    0.0011
    --------------------------------------------
      LOOP:  cpu time    5.6233: real time    8.2758

 eigenvalue-minimisations  :  2296
 total energy-change (2. order) : 0.4072270E+04  (-0.2090511E+05)
 number of electron     511.0000000 magnetization     128.0000000
 augmentation part      511.0000000 magnetization     128.0000000

 Free energy of the ion-electron system (eV)
  ---------------------------------------------------
  alpha Z        PSCENC =      1811.19641174
  Ewald energy   TEWEN  =    -18297.52956998
  -Hartree energ DENC   =     -3924.19968463
  -exchange      EXHF   =         0.00000000
  -V(xc)+E(xc)   XCENC  =       -37.10139433
  PAW double counting   =     16990.97682306   -15872.65036454
  entropy T*S    EENTRO =        -0.02593923
  eigenvalues    EBANDS =      3096.89586784
  atomic energy  EATOM  =     20304.70784089
  ---------------------------------------------------
  free energy    TOTEN  =      4072.26999082 eV

  energy without entropy =     4072.29593005  energy(sigma->0) =     4072.28296044
  exchange ACFDT corr.  =         0.00000000  see jH, gK, PRB 81, 115126


--------------------------------------------------------------------------------------------------------




--------------------------------------- Iteration      1(   2)  ---------------------------------------


    TRIAL :  cpu time    6.4327: real time    9.7964
    CORREC:  cpu time    0.0013: real time    0.0016
    --------------------------------------------
      LOOP:  cpu time    6.4348: real time    9.7992

 eigenvalue-minimisations  :  3072
 total energy-change (2. order) :-0.3132302E+04  (-0.2880015E+04)
 number of electron     511.0000000 magnetization     128.0000000
 augmentation part      511.0000000 magnetization     128.0000000

 Free energy of the ion-electron system (eV)
  ---------------------------------------------------
  alpha Z        PSCENC =      1811.19641174
  Ewald energy   TEWEN  =    -18297.52956998
  -Hartree energ DENC   =     -3924.19968463
  -exchange      EXHF   =         0.00000000
  -V(xc)+E(xc)   XCENC  =       -37.10139433
  PAW double counting   =     16990.97682306   -15872.65036454
  entropy T*S    EENTRO =        -0.00000000
  eigenvalues    EBANDS =       -35.43164549
  atomic energy  EATOM  =     20304.70784089
  ---------------------------------------------------
  free energy    TOTEN  =       939.96841673 eV

  energy without entropy =      939.96841673  energy(sigma->0) =      939.96841673
  exchange ACFDT corr.  =         0.00000000  see jH, gK, PRB 81, 115126


--------------------------------------------------------------------------------------------------------




--------------------------------------- Iteration      1(   3)  ---------------------------------------


    TRIAL :  cpu time    6.2759: real time    9.5965
    CORREC:  cpu time    0.0011: real time    0.0024
    --------------------------------------------
      LOOP:  cpu time    6.2784: real time    9.6026

 eigenvalue-minimisations  :  3000
 total energy-change (2. order) :-0.4914657E+03  (-0.4685512E+03)
 number of electron     511.0000000 magnetization     128.0000000
 augmentation part      511.0000000 magnetization     128.0000000

 Free energy of the ion-electron system (eV)
  ---------------------------------------------------
  alpha Z        PSCENC =      1811.19641174
  Ewald energy   TEWEN  =    -18297.52956998
  -Hartree energ DENC   =     -3924.19968463
  -exchange      EXHF   =         0.00000000
  -V(xc)+E(xc)   XCENC  =       -37.10139433
  PAW double counting   =     16990.97682306   -15872.65036454
  entropy T*S    EENTRO =        -0.00002165
  eigenvalues    EBANDS =      -526.89729442
  atomic energy  EATOM  =     20304.70784089
  ---------------------------------------------------
  free energy    TOTEN  =       448.50274614 eV

  energy without entropy =      448.50276779  energy(sigma->0) =      448.50275697
  exchange ACFDT corr.  =         0.00000000  see jH, gK, PRB 81, 115126


--------------------------------------------------------------------------------------------------------




--------------------------------------- Iteration      1(   4)  ---------------------------------------


    TRIAL :  cpu time    6.4369: real time    9.7899
    CORREC:  cpu time    0.0009: real time    0.0019
    --------------------------------------------
      LOOP:  cpu time    6.4401: real time    9.7944

 eigenvalue-minimisations  :  3072
 total energy-change (2. order) :-0.8887461E+02  (-0.8667784E+02)
 number of electron     511.0000000 magnetization     128.0000000
 augmentation part      511.0000000 magnetization     128.0000000

 Free energy of the ion-electron system (eV)
  ---------------------------------------------------
  alpha Z        PSCENC =      1811.19641174
  Ewald energy   TEWEN  =    -18297.52956998
  -Hartree energ DENC   =     -3924.19968463
  -exchange      EXHF   =         0.00000000
  -V(xc)+E(xc)   XCENC  =       -37.10139433
  PAW double counting   =     16990.97682306   -15872.65036454
  entropy T*S    EENTRO =        -0.00951554
  eigenvalues    EBANDS =      -615.76241226
  atomic energy  EATOM  =     20304.70784089
  ---------------------------------------------------
  free energy    TOTEN  =       359.62813441 eV

  energy without entropy =      359.63764995  energy(sigma->0) =      359.63289218
  exchange ACFDT corr.  =         0.00000000  see jH, gK, PRB 81, 115126


--------------------------------------------------------------------------------------------------------




--------------------------------------- Iteration      1(   5)  ---------------------------------------


    TRIAL :  cpu time    6.3244: real time    9.6150
    CORREC:  cpu time    0.0009: real time    0.0012
    CHARGE:  cpu time    0.0872: real time    0.0905
    --------------------------------------------
      LOOP:  cpu time    6.4139: real time    9.7081

 eigenvalue-minimisations  :  3000
 total energy-change (2. order) :-0.1871244E+02  (-0.1826760E+02)
 number of electron     511.0000295 magnetization       1.0000009
 augmentation part       -8.3120678 magnetization       0.9764522

 Free energy of the ion-electron system (eV)
  ---------------------------------------------------
  alpha Z        PSCENC =      1811.19641174
  Ewald energy   TEWEN  =    -18297.52956998
  -Hartree energ DENC   =     -3924.19968463
  -exchange      EXHF   =         0.00000000
  -V(xc)+E(xc)   XCENC  =       -37.10139433
  PAW double counting   =     16990.97682306   -15872.65036454
  entropy T*S    EENTRO =        -0.01966244
  eigenvalues    EBANDS =      -634.46470825
  atomic energy  EATOM  =     20304.70784089
  ---------------------------------------------------
  free energy    TOTEN  =       340.91569153 eV

  energy without entropy =      340.93535397  energy(sigma->0) =      340.92552275
  exchange ACFDT corr.  =         0.00000000  see jH, gK, PRB 81, 115126


--------------------------------------------------------------------------------------------------------




--------------------------------------- Iteration      1(   6)  ---------------------------------------


    POTLOK:  cpu time    0.2725: real time    0.2727
    SETDIJ:  cpu time    0.2725: real time    0.2727
    TRIAL :  cpu time   29.9852: real time   34.6131
    CORREC:  cpu time    0.0016: real time    0.0020
    CHARGE:  cpu time    0.0842: real time    0.0889
    --------------------------------------------
      LOOP:  cpu time   30.6162: real time   35.2517

 eigenvalue-minimisations  :     0
 total energy-change (2. order) :-0.1306675E+04  (-0.1284257E+02)
 number of electron     511.0000285 magnetization       1.0000008
 augmentation part       -9.2975650 magnetization       0.8820174

 Free energy of the ion-electron system (eV)
  ---------------------------------------------------
  alpha Z        PSCENC =      1811.19641174
  Ewald energy   TEWEN  =    -18297.52956998
  -Hartree energ DENC   =     -5260.40173230
  -exchange      EXHF   =      1381.87959893
  -V(xc)+E(xc)   XCENC  =        39.07960188
  PAW double counting   =     75461.69176621   -74385.45482481
  entropy T*S    EENTRO =        -0.00251017
  eigenvalues    EBANDS =     -2020.90834249
  atomic energy  EATOM  =     20304.70784089
  ---------------------------------------------------
  free energy    TOTEN  =      -965.75891237 eV

  energy without entropy =     -965.75640220  energy(sigma->0) =     -965.75765729
  exchange ACFDT corr.  =        -0.05145566  see jH, gK, PRB 81, 115126


--------------------------------------------------------------------------------------------------------




--------------------------------------- Iteration      1(   7)  ---------------------------------------


    POTLOK:  cpu time    0.2761: real time    0.2765
    SETDIJ:  cpu time    0.2722: real time    0.2728
    TRIAL :  cpu time   35.0509: real time   39.7094
    CORREC:  cpu time    0.0007: real time    0.0010
    CHARGE:  cpu time    0.0784: real time    0.0886
    --------------------------------------------
      LOOP:  cpu time   35.6789: real time   40.3517

 eigenvalue-minimisations  :     0
 total energy-change (2. order) :-0.1006059E+02  (-0.8523266E+01)
 number of electron     511.0000274 magnetization       1.0000006
 augmentation part      -10.4613377 magnetization       0.7557909

 Free energy of the ion-electron system (eV)
  ---------------------------------------------------
  alpha Z        PSCENC =      1811.19641174
  Ewald energy   TEWEN  =    -18297.52956998
  -Hartree energ DENC   =     -5118.72768487
  -exchange      EXHF   =      1372.57385018
  -V(xc)+E(xc)   XCENC  =        30.73140592
  PAW double counting   =     75381.53659254   -74304.95864351
  entropy T*S    EENTRO =        -0.00001891
  eigenvalues    EBANDS =     -2155.34719793
  atomic energy  EATOM  =     20304.70784089
  ---------------------------------------------------
  free energy    TOTEN  =      -975.81950520 eV

  energy without entropy =     -975.81948629  energy(sigma->0) =     -975.81949574
  exchange ACFDT corr.  =        -0.00771194  see jH, gK, PRB 81, 115126


--------------------------------------------------------------------------------------------------------




--------------------------------------- Iteration      1(   8)  ---------------------------------------


    POTLOK:  cpu time    0.2772: real time    0.2776
    SETDIJ:  cpu time    0.2725: real time    0.2733
    TRIAL :  cpu time   35.2247: real time   39.8151
    CORREC:  cpu time    0.0009: real time    0.0011
    CHARGE:  cpu time    0.0847: real time    0.0893
    --------------------------------------------
      LOOP:  cpu time   35.8603: real time   40.4591

 eigenvalue-minimisations  :     0
 total energy-change (2. order) :-0.5451329E+01  (-0.2522440E+01)
 number of electron     511.0000267 magnetization       1.0000005
 augmentation part      -11.2679546 magnetization       0.6374937

 Free energy of the ion-electron system (eV)
  ---------------------------------------------------
  alpha Z        PSCENC =      1811.19641174
  Ewald energy   TEWEN  =    -18297.52956998
  -Hartree energ DENC   =     -4970.86793733
  -exchange      EXHF   =      1363.06941958
  -V(xc)+E(xc)   XCENC  =        21.86113860
  PAW double counting   =     74931.22834384   -73854.21678138
  entropy T*S    EENTRO =        -0.00000002
  eigenvalues    EBANDS =     -2290.71968121
  atomic energy  EATOM  =     20304.70784089
  ---------------------------------------------------
  free energy    TOTEN  =      -981.27083417 eV

  energy without entropy =     -981.27083415  energy(sigma->0) =     -981.27083416
  exchange ACFDT corr.  =        -0.00005108  see jH, gK, PRB 81, 115126


--------------------------------------------------------------------------------------------------------




--------------------------------------- Iteration      1(   9)  ---------------------------------------


    POTLOK:  cpu time    0.2777: real time    0.2781
    SETDIJ:  cpu time    0.2718: real time    0.2720
    TRIAL :  cpu time   35.7221: real time   40.3792
    CORREC:  cpu time    0.0006: real time    0.0008
    CHARGE:  cpu time    0.0844: real time    0.0891
    --------------------------------------------
      LOOP:  cpu time   36.3572: real time   41.0228

 eigenvalue-minimisations  :     0
 total energy-change (2. order) :-0.1399957E+01  (-0.1071489E+01)
 number of electron     511.0000264 magnetization       1.0000005
 augmentation part      -11.6298550 magnetization       0.5443899

 Free energy of the ion-electron system (eV)
  ---------------------------------------------------
  alpha Z        PSCENC =      1811.19641174
  Ewald energy   TEWEN  =    -18297.52956998
  -Hartree energ DENC   =     -4894.87668251
  -exchange      EXHF   =      1358.61242794
  -V(xc)+E(xc)   XCENC  =        17.07381545
  PAW double counting   =     74115.49551855   -73038.11848519
  entropy T*S    EENTRO =        -0.00000000
  eigenvalues    EBANDS =     -2359.23206773
  atomic energy  EATOM  =     20304.70784089
  ---------------------------------------------------
  free energy    TOTEN  =      -982.67079087 eV

  energy without entropy =     -982.67079087  energy(sigma->0) =     -982.67079087
  exchange ACFDT corr.  =        -0.00000004  see jH, gK, PRB 81, 115126


--------------------------------------------------------------------------------------------------------




--------------------------------------- Iteration      1(  10)  ---------------------------------------


    POTLOK:  cpu time    0.2766: real time    0.2770
    SETDIJ:  cpu time    0.2736: real time    0.2737
    TRIAL :  cpu time   35.1598: real time   39.8495
    CORREC:  cpu time    0.0005: real time    0.0008
    CHARGE:  cpu time    0.0825: real time    0.0890
    --------------------------------------------
      LOOP:  cpu time   35.7935: real time   40.4924

 eigenvalue-minimisations  :     0
 total energy-change (2. order) :-0.7459944E+00  (-0.8362988E+00)
 number of electron     511.0000265 magnetization       1.0000004
 augmentation part      -11.6974506 magnetization       0.4738024

 Free energy of the ion-electron system (eV)
  ---------------------------------------------------
  alpha Z        PSCENC =      1811.19641174
  Ewald energy   TEWEN  =    -18297.52956998
  -Hartree energ DENC   =     -4888.72820627
  -exchange      EXHF   =      1358.89165272
  -V(xc)+E(xc)   XCENC  =        16.34770192
  PAW double counting   =     73214.81764330   -72137.19539431
  entropy T*S    EENTRO =        -0.00000000
  eigenvalues    EBANDS =     -2365.92486527
  atomic energy  EATOM  =     20304.70784089
  ---------------------------------------------------
  free energy    TOTEN  =      -983.41678527 eV

  energy without entropy =     -983.41678527  energy(sigma->0) =     -983.41678527
  exchange ACFDT corr.  =        -0.00000000  see jH, gK, PRB 81, 115126


--------------------------------------------------------------------------------------------------------




--------------------------------------- Iteration      1(  11)  ---------------------------------------


    POTLOK:  cpu time    0.2772: real time    0.2776
    SETDIJ:  cpu time    0.2736: real time    0.2738
    TRIAL :  cpu time   35.0562: real time   39.7035
    CORREC:  cpu time    0.0004: real time    0.0007
    CHARGE:  cpu time    0.0812: real time    0.0880
    --------------------------------------------
      LOOP:  cpu time   35.6894: real time   40.3470

 eigenvalue-minimisations  :     0
 total energy-change (2. order) :-0.6240176E+00  (-0.4697386E+00)
 number of electron     511.0000266 magnetization       1.0000004
 augmentation part      -11.6412747 magnetization       0.4188748

 Free energy of the ion-electron system (eV)
  ---------------------------------------------------
  alpha Z        PSCENC =      1811.19641174
  Ewald energy   TEWEN  =    -18297.52956998
  -Hartree energ DENC   =     -4917.39862372
  -exchange      EXHF   =      1361.38189541
  -V(xc)+E(xc)   XCENC  =        17.71522224
  PAW double counting   =     72487.35014819   -71409.59342582
  entropy T*S    EENTRO =        -0.00000000
  eigenvalues    EBANDS =     -2341.87070177
  atomic energy  EATOM  =     20304.70784089
  ---------------------------------------------------
  free energy    TOTEN  =      -984.04080283 eV

  energy without entropy =     -984.04080283  energy(sigma->0) =     -984.04080283
  exchange ACFDT corr.  =        -0.00000000  see jH, gK, PRB 81, 115126


--------------------------------------------------------------------------------------------------------




--------------------------------------- Iteration      1(  12)  ---------------------------------------


    POTLOK:  cpu time    0.2774: real time    0.2780
    SETDIJ:  cpu time    0.2743: real time    0.2744
    TRIAL :  cpu time   35.0788: real time   39.6416
    CORREC:  cpu time    0.0004: real time    0.0006
    CHARGE:  cpu time    0.0785: real time    0.0883
    --------------------------------------------
      LOOP:  cpu time   35.7104: real time   40.2855

 eigenvalue-minimisations  :     0
 total energy-change (2. order) :-0.3301336E+00  (-0.2041828E+00)
 number of electron     511.0000267 magnetization       1.0000003
 augmentation part      -11.5669449 magnetization       0.3758309

 Free energy of the ion-electron system (eV)
  ---------------------------------------------------
  alpha Z        PSCENC =      1811.19641174
  Ewald energy   TEWEN  =    -18297.52956998
  -Hartree energ DENC   =     -4950.39608054
  -exchange      EXHF   =      1363.96071924
  -V(xc)+E(xc)   XCENC  =        19.43513355
  PAW double counting   =     72041.22679408   -70963.41404165
  entropy T*S    EENTRO =        -0.00000000
  eigenvalues    EBANDS =     -2313.55814375
  atomic energy  EATOM  =     20304.70784089
  ---------------------------------------------------
  free energy    TOTEN  =      -984.37093642 eV

  energy without entropy =     -984.37093642  energy(sigma->0) =     -984.37093642
  exchange ACFDT corr.  =         0.00000000  see jH, gK, PRB 81, 115126


--------------------------------------------------------------------------------------------------------




--------------------------------------- Iteration      1(  13)  ---------------------------------------


    POTLOK:  cpu time    0.2763: real time    0.2768
    SETDIJ:  cpu time    0.2744: real time    0.2746
    TRIAL :  cpu time   35.0533: real time   39.6154
    CORREC:  cpu time    0.0005: real time    0.0008
    CHARGE:  cpu time    0.0795: real time    0.0903
    --------------------------------------------
      LOOP:  cpu time   35.6847: real time   40.2619

 eigenvalue-minimisations  :     0
 total energy-change (2. order) :-0.1427999E+00  (-0.1226692E+00)
 number of electron     511.0000268 magnetization       1.0000003
 augmentation part      -11.5151910 magnetization       0.3386674

 Free energy of the ion-electron system (eV)
  ---------------------------------------------------
  alpha Z        PSCENC =      1811.19641174
  Ewald energy   TEWEN  =    -18297.52956998
  -Hartree energ DENC   =     -4972.83700762
  -exchange      EXHF   =      1365.64050624
  -V(xc)+E(xc)   XCENC  =        20.64337038
  PAW double counting   =     71861.80648100   -70783.98661852
  entropy T*S    EENTRO =        -0.00000000
  eigenvalues    EBANDS =     -2294.15515042
  atomic energy  EATOM  =     20304.70784089
  ---------------------------------------------------
  free energy    TOTEN  =      -984.51373630 eV

  energy without entropy =     -984.51373630  energy(sigma->0) =     -984.51373630
  exchange ACFDT corr.  =        -0.00000000  see jH, gK, PRB 81, 115126


--------------------------------------------------------------------------------------------------------




--------------------------------------- Iteration      1(  14)  ---------------------------------------


    POTLOK:  cpu time    0.2769: real time    0.2774
    SETDIJ:  cpu time    0.2734: real time    0.2735
    TRIAL :  cpu time   34.8359: real time   39.4082
    CORREC:  cpu time    0.0006: real time    0.0009
    CHARGE:  cpu time    0.0793: real time    0.0874
    --------------------------------------------
      LOOP:  cpu time   35.4667: real time   40.0496

 eigenvalue-minimisations  :     0
 total energy-change (2. order) :-0.9775561E-01  (-0.1009146E+00)
 number of electron     511.0000268 magnetization       1.0000003
 augmentation part      -11.4952032 magnetization       0.3050835

 Free energy of the ion-electron system (eV)
  ---------------------------------------------------
  alpha Z        PSCENC =      1811.19641174
  Ewald energy   TEWEN  =    -18297.52956998
  -Hartree energ DENC   =     -4981.50691235
  -exchange      EXHF   =      1366.24837161
  -V(xc)+E(xc)   XCENC  =        21.13459556
  PAW double counting   =     71887.32503898   -70809.52627163
  entropy T*S    EENTRO =        -0.00000000
  eigenvalues    EBANDS =     -2286.66099672
  atomic energy  EATOM  =     20304.70784089
  ---------------------------------------------------
  free energy    TOTEN  =      -984.61149191 eV

  energy without entropy =     -984.61149191  energy(sigma->0) =     -984.61149191
  exchange ACFDT corr.  =         0.00000000  see jH, gK, PRB 81, 115126


--------------------------------------------------------------------------------------------------------




--------------------------------------- Iteration      1(  15)  ---------------------------------------


    POTLOK:  cpu time    0.2768: real time    0.2772
    SETDIJ:  cpu time    0.2748: real time    0.2751
    TRIAL :  cpu time   35.3091: real time   39.8615
    CORREC:  cpu time    0.0004: real time    0.0007
    CHARGE:  cpu time    0.0844: real time    0.0890
    --------------------------------------------
      LOOP:  cpu time   35.9465: real time   40.5067

 eigenvalue-minimisations  :     0
 total energy-change (2. order) :-0.8199195E-01  (-0.6650952E-01)
 number of electron     511.0000268 magnetization       1.0000003
 augmentation part      -11.4971803 magnetization       0.2749053

 Free energy of the ion-electron system (eV)
  ---------------------------------------------------
  alpha Z        PSCENC =      1811.19641174
  Ewald energy   TEWEN  =    -18297.52956998
  -Hartree energ DENC   =     -4979.52461325
  -exchange      EXHF   =      1366.06082164
  -V(xc)+E(xc)   XCENC  =        21.05750396
  PAW double counting   =     72029.08680144   -70951.32226910
  entropy T*S    EENTRO =        -0.00000000
  eigenvalues    EBANDS =     -2288.42641119
  atomic energy  EATOM  =     20304.70784089
  ---------------------------------------------------
  free energy    TOTEN  =      -984.69348386 eV

  energy without entropy =     -984.69348386  energy(sigma->0) =     -984.69348386
  exchange ACFDT corr.  =         0.00000000  see jH, gK, PRB 81, 115126


--------------------------------------------------------------------------------------------------------




[...]
    5.385723    4.902759    4.653793    4.298639    0.000000    0.004772    0.000000
    5.744771    5.578443    5.439090    5.015259    0.000000    0.008664    0.000000
    6.103819    6.765854    6.668907    6.229681    0.000000    0.025641    0.000000
    6.462867    9.477884    7.998566    4.777018    0.000000   -0.066197    0.000000
    6.821916    2.079713    2.312960    3.975230    0.000000   -0.020335    0.000000
    7.180964    4.774438    4.458519    4.146262    0.000000    0.004272    0.000000
    7.540012    5.158386    4.366824    5.896265    0.000000    0.003394    0.000000
    7.899060    9.571671    8.033267    8.975092    0.000000    0.008905    0.000000
    8.258108    6.361423    2.898634    3.181164    0.000000   -0.040864    0.000000
    8.617157   -4.817330    1.022479    4.337191    0.000000    0.045583    0.000000
    8.976205    1.274164    2.868788    9.652844    0.000000   -0.044375    0.000000
    9.335253    3.477793    3.760677    9.440913    0.000000    0.068288    0.000000
    9.694301    0.520328    0.439472   -6.055463    0.000000   -0.093683    0.000000
   10.053349   -4.756099   -2.324499   -6.068539    0.000000   -0.020836    0.000000
   10.412398   -2.492666   -0.605584   -3.091550    0.000000    0.026659    0.000000
   10.771446    0.160282    0.018205   -0.877734    0.000000    0.021646    0.000000
   11.130494    1.232403    1.236555    0.780218    0.000000    0.039999    0.000000
   11.489542    0.106098    1.758741    0.672174    0.000000    0.016843    0.000000
   11.848590   -0.217391   -0.607575    0.310556    0.000000   -0.028566    0.000000
   12.207638   -2.289671   -3.021779   -2.918314    0.000000   -0.013825    0.000000
   12.566687   -2.389362   -2.901392   -2.220797    0.000000   -0.041321    0.000000
   12.925735   -2.078338   -2.300398   -1.846961    0.000000   -0.021070    0.000000
   13.284783   -2.441353   -2.164250   -1.978632    0.000000   -0.020020    0.000000
   13.643831   -1.935260   -2.235435   -1.848422    0.000000    0.061468    0.000000
   14.002879   -1.582290   -1.544416   -2.132472    0.000000    0.011773    0.000000
   14.361928   -1.868543   -1.269255   -1.641237    0.000000    0.015502    0.000000
   14.720976   -1.227285   -1.217430   -1.476232    0.000000   -0.000673    0.000000
   15.080024   -1.401884   -1.385534   -1.402740    0.000000    0.021134    0.000000
   15.439072   -1.133520   -1.066474   -1.247792    0.000000    0.010040    0.000000
   15.798120   -0.958397   -0.795553   -0.946183    0.000000    0.006657    0.000000
   16.157169   -0.826690   -0.844247   -0.765345    0.000000    0.001480    0.000000
   16.516217   -0.809935   -0.750085   -0.638740    0.000000    0.001533    0.000000
   16.875265   -0.668411   -0.783760   -0.515188    0.000000    0.000119    0.000000
   17.234313   -0.601203   -0.610315   -0.447524    0.000000   -0.000282    0.000000
   17.593361   -0.458513   -0.452288   -0.371303    0.000000    0.001428    0.000000
   17.952409   -0.361170   -0.329799   -0.261837    0.000000   -0.001829    0.000000
   18.311458   -0.243229   -0.220771   -0.168515    0.000000   -0.002016    0.000000
   18.670506   -0.150264   -0.130283   -0.081648    0.000000   -0.001177    0.000000
   19.029554   -0.069213   -0.052292   -0.016483    0.000000   -0.000584    0.000000
   19.388602   -0.000997    0.015923    0.045448    0.000000   -0.001060    0.000000
   19.747650    0.059093    0.075986    0.103978    0.000000   -0.000844    0.000000
   20.106699    0.113656    0.129857    0.154624    0.000000   -0.000884    0.000000
   20.465747    0.162700    0.178427    0.200394    0.000000   -0.000827    0.000000
   20.824795    0.209729    0.224581    0.242155    0.000000   -0.000754    0.000000
   21.183843    0.239164    0.253070    0.280705    0.000000   -0.000701    0.000000
   21.542891    0.279877    0.292862    0.312867    0.000000   -0.000709    0.000000
   21.901940    0.317243    0.331016    0.344373    0.000000   -0.000619    0.000000
   22.260988    0.344603    0.357700    0.378476    0.000000   -0.000545    0.000000
   22.620036    0.379316    0.391909    0.412490    0.000000   -0.001007    0.000000
   22.979084    0.386228    0.405733    0.424517    0.000000   -0.000959    0.000000
   23.338132    0.418345    0.425100    0.434156    0.000000   -0.000473    0.000000
   23.697181    0.441004    0.452048    0.460034    0.000000   -0.000604    0.000000
   24.056229    0.474770    0.485990    0.488599    0.000000   -0.000676    0.000000
   24.415277    0.489283    0.490271    0.502915    0.000000   -0.000340    0.000000
   24.774325    0.486377    0.507815    0.525990    0.000000   -0.000328    0.000000
   25.133373    0.505492    0.518918    0.532525    0.000000   -0.000623    0.000000
   25.492421    0.519992    0.534539    0.552622    0.000000   -0.000063    0.000000
   25.851470    0.536230    0.547836    0.564326    0.000000   -0.000610    0.000000
   26.210518    0.554426    0.562314    0.576989    0.000000   -0.000294    0.000000
   26.569566    0.567949    0.575030    0.587653    0.000000   -0.000394    0.000000
   26.928614    0.578484    0.587867    0.598370    0.000000   -0.000134    0.000000
   27.287662    0.590489    0.600667    0.611657    0.000000   -0.000466    0.000000
   27.646711    0.604099    0.613281    0.624088    0.000000   -0.000285    0.000000
   28.005759    0.617832    0.626299    0.636396    0.000000   -0.000377    0.000000
   28.364807    0.630071    0.638436    0.647891    0.000000   -0.000320    0.000000
   28.723855    0.641597    0.649903    0.658980    0.000000   -0.000328    0.000000
   29.082903    0.652451    0.660527    0.669322    0.000000   -0.000312    0.000000
   29.441952    0.662672    0.670532    0.679060    0.000000   -0.000304    0.000000
   29.801000    0.672291    0.679965    0.688247    0.000000   -0.000304    0.000000
   30.160048    0.681540    0.689039    0.696995    0.000000   -0.000290    0.000000
   30.519096    0.690337    0.697667    0.705327    0.000000   -0.000281    0.000000
   30.878144    0.698721    0.705885    0.713279    0.000000   -0.000273    0.000000
   31.237193    0.706731    0.713734    0.720881    0.000000   -0.000266    0.000000
   31.596241    0.714396    0.721242    0.728158    0.000000   -0.000259    0.000000
   31.955289    0.721739    0.728433    0.735132    0.000000   -0.000253    0.000000
   32.314337    0.728780    0.735327    0.741822    0.000000   -0.000246    0.000000
   32.673385    0.735539    0.741944    0.748245    0.000000   -0.000240    0.000000
   33.032433    0.742032    0.748299    0.754416    0.000000   -0.000234    0.000000
   33.391482    0.748275    0.754408    0.760350    0.000000   -0.000229    0.000000
   33.750530    0.754281    0.760284    0.766060    0.000000   -0.000223    0.000000
   34.109578    0.760063    0.765940    0.771558    0.000000   -0.000218    0.000000
   34.468626    0.765632    0.771388    0.776855    0.000000   -0.000213    0.000000
   34.827674    0.771001    0.776639    0.781961    0.000000   -0.000208    0.000000
   35.186723    0.776179    0.781702    0.786886    0.000000   -0.000204    0.000000
   35.545771    0.781175    0.786587    0.791639    0.000000   -0.000199    0.000000
 
 The outermost node in the dielectric function lies at epsilon=  19.3


--------------------------------------------------------------------------------------------------------


    OPTICS:  cpu time    5.2242: real time    6.9523
    4ORBIT:  cpu time    0.0000: real time    0.0000
 


 total charge     
 
# of ion       s       p       d       tot
------------------------------------------
    1        1.078   1.563   0.411   3.052
    2        1.074   1.492   0.405   2.971
    3        1.048   1.507   0.431   2.986
    4        1.082   1.567   0.412   3.061
    5        1.046   1.497   0.428   2.971
    6        1.051   1.517   0.436   3.004
    7        1.051   1.521   0.437   3.010
    8        1.051   1.522   0.438   3.011
    9        1.050   1.514   0.434   2.997
   10        1.053   1.524   0.439   3.016
   11        1.048   1.507   0.431   2.986
   12        1.051   1.520   0.436   3.007
   13        1.050   1.514   0.434   2.997
   14        1.050   1.515   0.434   2.999
   15        1.051   1.520   0.437   3.008
   16        1.050   1.515   0.434   2.999
   17        1.048   1.507   0.430   2.985
   18        1.049   1.494   0.423   2.967
   19        1.049   1.511   0.433   2.993
   20        1.047   1.505   0.430   2.982
   21        1.050   1.515   0.434   3.000
   22        1.049   1.511   0.432   2.993
   23        1.049   1.512   0.433   2.994
   24        1.049   1.511   0.433   2.993
   25        1.050   1.514   0.434   2.998
   26        1.050   1.513   0.434   2.997
   27        1.049   1.512   0.433   2.995
   28        1.052   1.523   0.438   3.013
   29        1.050   1.516   0.435   3.000
   30        1.050   1.513   0.434   2.997
   31        1.049   1.512   0.433   2.994
   32        1.050   1.514   0.434   2.998
   33        1.049   1.512   0.433   2.995
   34        1.049   1.494   0.423   2.967
   35        1.049   1.511   0.433   2.993
   36        1.050   1.514   0.434   2.998
   37        1.049   1.510   0.432   2.992
   38        1.049   1.511   0.432   2.993
   39        1.049   1.512   0.433   2.994
   40        1.050   1.512   0.433   2.995
   41        1.049   1.511   0.433   2.993
   42        1.050   1.513   0.434   2.997
   43        1.049   1.512   0.433   2.995
   44        1.049   1.510   0.432   2.991
   45        1.049   1.512   0.433   2.994
   46        1.050   1.513   0.434   2.997
   47        1.049   1.512   0.433   2.994
   48        1.049   1.512   0.433   2.994
   49        1.048   1.507   0.430   2.985
   50        1.074   1.491   0.405   2.970
   51        1.048   1.507   0.431   2.986
   52        1.047   1.505   0.430   2.982
   53        1.050   1.515   0.434   3.000
   54        1.051   1.517   0.436   3.004
   55        1.051   1.521   0.437   3.010
   56        1.049   1.511   0.433   2.993
   57        1.050   1.514   0.434   2.998
   58        1.053   1.524   0.439   3.016
   59        1.048   1.507   0.431   2.986
   60        1.052   1.523   0.438   3.013
   61        1.050   1.516   0.435   3.000
   62        1.050   1.515   0.434   2.999
   63        1.051   1.520   0.437   3.008
   64        1.050   1.514   0.434   2.998
   65        1.233   2.483   0.000   3.716
   66        1.233   2.484   0.000   3.717
   67        1.232   2.486   0.000   3.719
   68        1.232   2.482   0.000   3.714
   69        1.234   2.483   0.000   3.717
   70        1.232   2.486   0.000   3.718
   71        1.232   2.485   0.000   3.717
   72        1.232   2.487   0.000   3.719
   73        1.232   2.484   0.000   3.716
   74        1.233   2.484   0.000   3.718
   75        1.232   2.484   0.000   3.716
   76        1.232   2.483   0.000   3.715
   77        1.232   2.484   0.000   3.716
   78        1.232   2.486   0.000   3.718
   79        1.232   2.484   0.000   3.715
   80        1.238   2.456   0.000   3.693
   81        1.232   2.481   0.000   3.714
   82        1.232   2.482   0.000   3.714
   83        1.232   2.482   0.000   3.714
   84        1.232   2.484   0.000   3.716
   85        1.232   2.482   0.000   3.715
   86        1.232   2.483   0.000   3.715
   87        1.232   2.483   0.000   3.715
   88        1.232   2.487   0.000   3.719
   89        1.232   2.483   0.000   3.715
   90        1.232   2.483   0.000   3.715
   91        1.232   2.484   0.000   3.716
   92        1.232   2.484   0.000   3.716
   93        1.232   2.483   0.000   3.715
   94        1.232   2.483   0.000   3.715
   95        1.232   2.484   0.000   3.715
   96        1.235   2.472   0.000   3.707
   97        1.232   2.481   0.000   3.714
   98        1.232   2.482   0.000   3.714
   99        1.232   2.483   0.000   3.715
  100        1.232   2.482   0.000   3.714
  101        1.232   2.482   0.000   3.715
  102        1.232   2.483   0.000   3.715
  103        1.232   2.483   0.000   3.715
  104        1.232   2.482   0.000   3.714
  105        1.232   2.483   0.000   3.715
  106        1.232   2.483   0.000   3.715
  107        1.232   2.483   0.000   3.715
  108        1.232   2.483   0.000   3.715
  109        1.232   2.483   0.000   3.715
  110        1.232   2.483   0.000   3.715
  111        1.232   2.483   0.000   3.715
  112        1.238   2.456   0.000   3.693
  113        1.233   2.483   0.000   3.716
  114        1.233   2.484   0.000   3.717
  115        1.232   2.482   0.000   3.714
  116        1.232   2.484   0.000   3.716
  117        1.234   2.483   0.000   3.717
  118        1.232   2.486   0.000   3.718
  119        1.232   2.483   0.000   3.715
  120        1.232   2.487   0.000   3.719
  121        1.232   2.484   0.000   3.716
  122        1.233   2.484   0.000   3.718
  123        1.232   2.484   0.000   3.716
  124        1.232   2.484   0.000   3.716
  125        1.232   2.484   0.000   3.716
  126        1.232   2.486   0.000   3.718
  127        1.232   2.484   0.000   3.715
  128        0.864   1.528   0.000   2.391
--------------------------------------------------
tot        145.792 254.812  27.633 428.236
 


 magnetization (x)
 
# of ion       s       p       d       tot
------------------------------------------
    1       -0.006  -0.012   0.011  -0.007
    2        0.003   0.070   0.026   0.100
    3       -0.000  -0.000  -0.000  -0.000
    4       -0.006  -0.011   0.011  -0.006
    5       -0.001   0.001   0.001   0.001
    6       -0.000   0.000   0.001   0.000
    7       -0.000  -0.000  -0.000  -0.000
    8       -0.000  -0.000  -0.000  -0.001
    9       -0.000  -0.000   0.000  -0.000
   10       -0.000   0.001   0.000   0.001
   11       -0.000  -0.000   0.000  -0.000
   12       -0.000  -0.001   0.000  -0.001
   13       -0.000  -0.000  -0.000  -0.000
   14       -0.000  -0.000   0.000  -0.000
   15       -0.000   0.000   0.000   0.001
   16       -0.000   0.000  -0.000   0.000
   17       -0.001  -0.002   0.001  -0.003
   18       -0.002   0.006   0.006   0.009
   19       -0.000  -0.000   0.000  -0.000
   20       -0.001  -0.002   0.001  -0.003
   21       -0.000   0.001   0.001   0.001
   22       -0.000  -0.000   0.000  -0.000
   23       -0.000  -0.000  -0.000  -0.000
   24       -0.000  -0.000  -0.000  -0.000
   25       -0.000  -0.000   0.000  -0.000
   26       -0.000  -0.000   0.000  -0.000
   27       -0.000  -0.000   0.000  -0.000
   28        0.000   0.001   0.001   0.002
   29       -0.000  -0.000   0.000  -0.000
   30       -0.000  -0.000   0.000  -0.000
   31       -0.000  -0.000   0.000  -0.000
   32       -0.000  -0.000   0.000  -0.000
   33       -0.000  -0.001   0.000  -0.001
   34       -0.002   0.006   0.006   0.009
   35       -0.000  -0.000   0.000  -0.000
   36       -0.001  -0.001   0.000  -0.001
   37       -0.000  -0.000   0.000  -0.000
   38       -0.000  -0.000   0.000  -0.000
   39       -0.000  -0.000  -0.000  -0.000
   40       -0.000  -0.000   0.000  -0.000
   41       -0.000  -0.000   0.000  -0.000
   42       -0.000  -0.000   0.000  -0.000
   43       -0.000  -0.000   0.000  -0.000
   44       -0.000   0.000   0.000   0.000
   45       -0.000  -0.000   0.000  -0.000
   46       -0.000  -0.000   0.000  -0.000
   47       -0.000  -0.000   0.000  -0.000
   48       -0.000  -0.000   0.000  -0.000
   49       -0.001  -0.002   0.001  -0.003
   50        0.003   0.071   0.026   0.100
   51       -0.000  -0.000  -0.000  -0.000
   52       -0.001  -0.002   0.001  -0.003
   53       -0.000   0.001   0.001   0.001
   54       -0.000   0.000   0.001   0.000
   55       -0.000  -0.000  -0.000  -0.000
   56       -0.000  -0.000  -0.000  -0.000
   57       -0.000  -0.000   0.000  -0.000
   58       -0.000   0.001   0.000   0.001
   59       -0.000  -0.000   0.000  -0.000
   60        0.000   0.001   0.001   0.002
   61       -0.000  -0.000   0.000  -0.000
   62       -0.000  -0.000   0.000  -0.000
   63       -0.000   0.000   0.000   0.001
   64       -0.000  -0.000   0.000  -0.000
   65        0.001   0.012   0.000   0.012
   66        0.001   0.010   0.000   0.010
   67       -0.000  -0.001   0.000  -0.002
   68       -0.000  -0.000   0.000  -0.000
   69        0.000   0.012   0.000   0.013
   70       -0.000  -0.000   0.000  -0.000
   71       -0.000  -0.001   0.000  -0.002
   72       -0.000  -0.000   0.000  -0.000
   73       -0.000   0.000   0.000   0.000
   74        0.000   0.010   0.000   0.010
   75       -0.000  -0.000   0.000  -0.000
   76        0.000   0.000   0.000   0.000
   77       -0.000   0.000   0.000   0.000
   78        0.000   0.001   0.000   0.001
   79       -0.000  -0.000   0.000  -0.000
   80        0.004   0.073   0.000   0.078
   81        0.000   0.002   0.000   0.002
   82        0.000   0.003   0.000   0.003
   83       -0.000  -0.000   0.000  -0.000
   84        0.000   0.001   0.000   0.001
   85       -0.000   0.002   0.000   0.002
   86        0.000   0.000   0.000   0.000
   87       -0.000  -0.000   0.000  -0.000
   88        0.000   0.001   0.000   0.001
   89        0.000   0.000   0.000   0.000
   90        0.000   0.002   0.000   0.002
   91        0.000   0.001   0.000   0.001
   92        0.000   0.000   0.000   0.000
   93        0.000   0.000   0.000   0.000
   94       -0.000   0.000   0.000   0.000
   95        0.000   0.001   0.000   0.001
   96        0.001   0.030   0.000   0.031
   97        0.000   0.002   0.000   0.002
   98        0.000   0.003   0.000   0.003
   99       -0.000   0.000   0.000   0.000
  100        0.000   0.001   0.000   0.001
  101       -0.000   0.002   0.000   0.002
  102        0.000   0.000   0.000   0.000
  103       -0.000   0.000   0.000   0.000
  104        0.000   0.001   0.000   0.001
  105        0.000   0.000   0.000   0.000
  106        0.000   0.002   0.000   0.002
  107        0.000   0.001   0.000   0.001
  108        0.000   0.000   0.000   0.000
  109        0.000   0.000   0.000   0.000
  110       -0.000   0.000   0.000   0.000
  111        0.000   0.001   0.000   0.001
  112        0.004   0.073   0.000   0.078
  113        0.001   0.011   0.000   0.012
  114        0.001   0.010   0.000   0.010
  115       -0.000  -0.000   0.000  -0.000
  116        0.000   0.001   0.000   0.001
  117        0.000   0.013   0.000   0.013
  118       -0.000  -0.000   0.000  -0.000
  119       -0.000  -0.000   0.000  -0.000
  120        0.000   0.001   0.000   0.001
  121       -0.000   0.000   0.000   0.000
  122        0.000   0.010   0.000   0.010
  123        0.000   0.001   0.000   0.001
  124        0.000   0.000   0.000   0.000
  125       -0.000   0.000   0.000   0.000
  126        0.000   0.001   0.000   0.001
  127        0.000   0.001   0.000   0.001
  128        0.014   0.281   0.000   0.295
--------------------------------------------------
tot          0.006   0.692   0.098   0.796
 

 total amount of memory used by VASP MPI-rank0    79496. kBytes
=======================================================================

   base      :      30000. kBytes
   nonl-proj :       7835. kBytes
   fftplans  :       4191. kBytes
   grid      :       9844. kBytes
   one-center:        259. kBytes
   HF        :         67. kBytes
   nonlr-proj:      11229. kBytes
   wavefun   :      16071. kBytes
 
  
  
 General timing and accounting informations for this job:
 ========================================================
  
                  Total CPU time used (sec):     1935.270
                            User time (sec):     1881.759
                          System time (sec):       53.511
                         Elapsed time (sec):     2173.637
  
                   Maximum memory used (kb):      265468.
                   Average memory used (kb):           0.
  
                          Minor page faults:       302378
                          Major page faults:           16
                 Voluntary context switches:      1662486
