GaN                                     
           1
    12.765778    0.000000    0.000000
     0.000000   11.055488    0.000000
     0.000000    0.000000   10.362404
   Ga   N    C 
  64  63   1
Direct configuration=     1
   0.00000000  0.16752731  0.25471232
   0.12511071  0.07785986  0.99659447
   0.12435565  0.41674094  0.25084540
   0.00000000  0.33682851  0.99959886
   0.00000000  0.16778663  0.75169371
   0.12511430  0.08323469  0.50248958
   0.12534789  0.41749170  0.75039492
   0.00000000  0.33431227  0.50274742
   0.00000000  0.66664310  0.25064974
   0.12543787  0.58462755  0.00066754
   0.12500914  0.91705757  0.25113684
   0.00000000  0.83233612  0.00081358
   0.00000000  0.66651023  0.75042147
   0.12509373  0.58351166  0.50040936
   0.12502775  0.91534147  0.74957739
   0.00000000  0.83301030  0.50004365
   0.24897410  0.16632342  0.25133364
   0.37469798  0.08304651  0.00042467
   0.37486215  0.41656905  0.25062643
   0.24894466  0.33383396  0.00079622
   0.25043478  0.16713200  0.75027970
   0.37499617  0.08343578  0.50035132
   0.37497575  0.41665983  0.75055800
   0.25002869  0.33361078  0.50025378
   0.25006274  0.66656768  0.25072241
   0.37516479  0.58287003  0.00067002
   0.37499051  0.91660320  0.25078523
   0.25095993  0.83226818  0.00043585
   0.25024778  0.66657126  0.75030972
   0.37506110  0.58335762  0.50060519
   0.37506416  0.91659719  0.75038456
   0.25015847  0.83321074  0.50033717
   0.50000000  0.16683748  0.25097765
   0.62530204  0.08304651  0.00042467
   0.62513787  0.41656905  0.25062643
   0.50000000  0.33353596  0.00041758
   0.50000000  0.16674163  0.75050144
   0.62500384  0.08343578  0.50035132
   0.62502426  0.41665983  0.75055800
   0.50000000  0.33349144  0.50065303
   0.50000000  0.66652119  0.25073548
   0.62483522  0.58287003  0.00067002
   0.62500951  0.91660320  0.25078523
   0.50000000  0.83318637  0.00057060
   0.50000000  0.66657752  0.75057559
   0.62493891  0.58335762  0.50060519
   0.62493586  0.91659719  0.75038456
   0.50000000  0.83333901  0.50060502
   0.75102590  0.16632342  0.25133364
   0.87488930  0.07785986  0.99659447
   0.87564436  0.41674094  0.25084540
   0.75105534  0.33383396  0.00079622
   0.74956522  0.16713200  0.75027970
   0.87488571  0.08323469  0.50248958
   0.87465212  0.41749170  0.75039492
   0.74997131  0.33361078  0.50025378
   0.74993726  0.66656768  0.25072241
   0.87456214  0.58462755  0.00066754
   0.87499087  0.91705757  0.25113684
   0.74904007  0.83226818  0.00043585
   0.74975222  0.66657126  0.75030972
   0.87490629  0.58351166  0.50040936
   0.87497227  0.91534147  0.74957739
   0.74984153  0.83321074  0.50033717
   0.12560937  0.08256949  0.31471993
   0.12572469  0.41942051  0.06199246
   0.00000000  0.33512127  0.31553517
   0.00000000  0.16702773  0.56292356
   0.12554478  0.08223383  0.80934684
   0.12570046  0.41739190  0.56205950
   0.00000000  0.33534359  0.80978971
   0.00000000  0.66667406  0.06198377
   0.12509553  0.58359927  0.31182866
   0.12570300  0.91415755  0.06203100
   0.00000000  0.83331031  0.31141608
   0.00000000  0.66664912  0.56171099
   0.12522921  0.58397264  0.81180514
   0.12501373  0.91592236  0.56157809
   0.00000000  0.83304984  0.81198246
   0.24777745  0.16630127  0.06171761
   0.37491391  0.08338625  0.31137524
   0.37490155  0.41617099  0.06177159
   0.24985866  0.33320067  0.31137949
   0.25047311  0.16713461  0.56196514
   0.37508231  0.08320520  0.81198181
   0.37508624  0.41684619  0.56176512
   0.25003927  0.33335071  0.81207673
   0.25088529  0.66673608  0.06204247
   0.37506748  0.58313337  0.31184579
   0.37516677  0.91696991  0.06186225
   0.25013772  0.83319881  0.31167974
   0.25018110  0.66680503  0.56167106
   0.37511278  0.58314703  0.81183141
   0.37504553  0.91687085  0.56166347
   0.25032227  0.83308226  0.81169885
   0.50000000  0.16684680  0.06185502
   0.62508610  0.08338625  0.31137524
   0.62509846  0.41617099  0.06177159
   0.50000000  0.33333952  0.31179221
   0.50000000  0.16675741  0.56170917
   0.62491771  0.08320520  0.81198181
   0.62491377  0.41684619  0.56176512
   0.50000000  0.33322407  0.81171614
   0.50000000  0.66662890  0.06185536
   0.62493253  0.58313337  0.31184579
   0.62483324  0.91696991  0.06186225
   0.50000000  0.83321162  0.31176457
   0.50000000  0.66684239  0.56180896
   0.62488723  0.58314703  0.81183141
   0.62495448  0.91687085  0.56166347
   0.50000000  0.83323231  0.81180083
   0.75222255  0.16630127  0.06171761
   0.87439064  0.08256949  0.31471993
   0.87427533  0.41942051  0.06199246
   0.75014134  0.33320067  0.31137949
   0.74952689  0.16713461  0.56196514
   0.87445523  0.08223383  0.80934684
   0.87429956  0.41739190  0.56205950
   0.74996073  0.33335071  0.81207673
   0.74911471  0.66673608  0.06204247
   0.87490448  0.58359927  0.31182866
   0.87429702  0.91415755  0.06203100
   0.74986228  0.83319881  0.31167974
   0.74981890  0.66680503  0.56167106
   0.87477080  0.58397264  0.81180514
   0.87498629  0.91592236  0.56157809
   0.74967773  0.83308226  0.81169885
   0.00000000  0.17089710  0.06528132
