  192  192    1    2
  0.2007906E+02  0.1640400E-08  0.1533138E-08  0.1533138E-08  0.5000000E-15
  1.000000000000000E-004
  CAR 
 unknown system                          
   1730      1   1136
 
  0.0000000E+00  0.0000000E+00  0.0000000E+00  0.1000000E+01
    1      -25.104588    -25.104588   1.000000   1.000000
    2      -25.104099    -25.104099   1.000000   1.000000
    3      -25.096238    -25.096238   1.000000   1.000000
    4      -25.096233    -25.096233   1.000000   1.000000
    5      -25.091961    -25.091961   1.000000   1.000000
    6      -25.091546    -25.091546   1.000000   1.000000
    7      -25.066664    -25.066664   1.000000   1.000000
    8      -25.066022    -25.066022   1.000000   1.000000
    9      -25.058775    -25.058776   1.000000   1.000000
   10      -25.058400    -25.058400   1.000000   1.000000
   11      -25.039222    -25.039222   1.000000   1.000000
   12      -25.038608    -25.038608   1.000000   1.000000
   13      -25.034515    -25.034515   1.000000   1.000000
   14      -25.034037    -25.034037   1.000000   1.000000
   15      -25.028650    -25.028650   1.000000   1.000000
   16      -25.027950    -25.027950   1.000000   1.000000
   17      -25.016997    -25.016997   1.000000   1.000000
   18      -25.015527    -25.015527   1.000000   1.000000
   19      -25.014498    -25.014498   1.000000   1.000000
   20      -25.013670    -25.013670   1.000000   1.000000
   21      -25.009891    -25.009891   1.000000   1.000000
   22      -25.008455    -25.008455   1.000000   1.000000
   23      -25.006758    -25.006758   1.000000   1.000000
   24      -25.005491    -25.005491   1.000000   1.000000
   25      -25.005312    -25.005312   1.000000   1.000000
   26      -25.004819    -25.004819   1.000000   1.000000
   27      -25.003972    -25.003972   1.000000   1.000000
   28      -25.003393    -25.003393   1.000000   1.000000
   29      -25.002567    -25.002567   1.000000   1.000000
   30      -25.002138    -25.002138   1.000000   1.000000
   31      -25.001346    -25.001346   1.000000   1.000000
   32      -25.001123    -25.001123   1.000000   1.000000
   33      -25.001012    -25.001012   1.000000   1.000000
   34      -25.000578    -25.000578   1.000000   1.000000
   35      -24.999336    -24.999336   1.000000   1.000000
   36      -24.999319    -24.999319   1.000000   1.000000
   37      -24.999232    -24.999232   1.000000   1.000000
   38      -24.998816    -24.998816   1.000000   1.000000
   39      -24.998402    -24.998402   1.000000   1.000000
   40      -24.997173    -24.997173   1.000000   1.000000
   41      -24.997009    -24.997009   1.000000   1.000000
   42      -24.996217    -24.996217   1.000000   1.000000
   43      -24.994466    -24.994466   1.000000   1.000000
   44      -24.993925    -24.993925   1.000000   1.000000
   45      -24.993841    -24.993841   1.000000   1.000000
   46      -24.993787    -24.993787   1.000000   1.000000
   47      -24.993501    -24.993501   1.000000   1.000000
   48      -24.993316    -24.993316   1.000000   1.000000
   49      -24.992871    -24.992871   1.000000   1.000000
   50      -24.992481    -24.992481   1.000000   1.000000
   51      -24.992372    -24.992372   1.000000   1.000000
   52      -24.992108    -24.992108   1.000000   1.000000
   53      -24.991988    -24.991989   1.000000   1.000000
   54      -24.991770    -24.991770   1.000000   1.000000
   55      -24.991561    -24.991561   1.000000   1.000000
   56      -24.991155    -24.991155   1.000000   1.000000
   57      -24.990604    -24.990604   1.000000   1.000000
   58      -24.990555    -24.990555   1.000000   1.000000
   59      -24.990375    -24.990375   1.000000   1.000000
   60      -24.990161    -24.990161   1.000000   1.000000
   61      -24.990134    -24.990133   1.000000   1.000000
   62      -24.989985    -24.989985   1.000000   1.000000
   63      -24.989457    -24.989457   1.000000   1.000000
   64      -24.989037    -24.989037   1.000000   1.000000
   65      -24.988945    -24.988945   1.000000   1.000000
   66      -24.988666    -24.988665   1.000000   1.000000
   67      -24.988223    -24.988223   1.000000   1.000000
   68      -24.988046    -24.988046   1.000000   1.000000
   69      -24.987758    -24.987758   1.000000   1.000000
   70      -24.987275    -24.987275   1.000000   1.000000
   71      -24.987123    -24.987123   1.000000   1.000000
   72      -24.986819    -24.986819   1.000000   1.000000
   73      -24.986415    -24.986415   1.000000   1.000000
   74      -24.986276    -24.986276   1.000000   1.000000
   75      -24.985423    -24.985423   1.000000   1.000000
   76      -24.985213    -24.985213   1.000000   1.000000
   77      -24.985009    -24.985009   1.000000   1.000000
   78      -24.984791    -24.984791   1.000000   1.000000
   79      -24.984316    -24.984316   1.000000   1.000000
   80      -24.984071    -24.984071   1.000000   1.000000
   81      -24.983904    -24.983904   1.000000   1.000000
   82      -24.983686    -24.983686   1.000000   1.000000
   83      -24.983497    -24.983497   1.000000   1.000000
   84      -24.983374    -24.983374   1.000000   1.000000
   85      -24.983288    -24.983288   1.000000   1.000000
   86      -24.983036    -24.983036   1.000000   1.000000
   87      -24.982613    -24.982613   1.000000   1.000000
   88      -24.982382    -24.982382   1.000000   1.000000
   89      -24.982158    -24.982158   1.000000   1.000000
   90      -24.982101    -24.982101   1.000000   1.000000
   91      -24.981779    -24.981779   1.000000   1.000000
   92      -24.981692    -24.981692   1.000000   1.000000
   93      -24.981291    -24.981291   1.000000   1.000000
   94      -24.981083    -24.981083   1.000000   1.000000
   95      -24.980710    -24.980710   1.000000   1.000000
   96      -24.980471    -24.980471   1.000000   1.000000
   97      -24.980392    -24.980392   1.000000   1.000000
   98      -24.980103    -24.980103   1.000000   1.000000
   99      -24.979961    -24.979961   1.000000   1.000000
  100      -24.979692    -24.979692   1.000000   1.000000
  101      -24.979671    -24.979671   1.000000   1.000000
  102      -24.979483    -24.979483   1.000000   1.000000
  103      -24.979340    -24.979340   1.000000   1.000000
  104      -24.979110    -24.979110   1.000000   1.000000
  105      -24.978915    -24.978915   1.000000   1.000000
  106      -24.978491    -24.978491   1.000000   1.000000
  107      -24.978298    -24.978298   1.000000   1.000000
  108      -24.977952    -24.977952   1.000000   1.000000
  109      -24.977247    -24.977247   1.000000   1.000000
  110      -24.977071    -24.977071   1.000000   1.000000
  111      -24.976907    -24.976907   1.000000   1.000000
  112      -24.975824    -24.975824   1.000000   1.000000
  113      -24.975535    -24.975535   1.000000   1.000000
  114      -24.974807    -24.974807   1.000000   1.000000
  115      -24.974691    -24.974691   1.000000   1.000000
  116      -24.973954    -24.973954   1.000000   1.000000
  117      -24.973807    -24.973807   1.000000   1.000000
  118      -24.973499    -24.973499   1.000000   1.000000
  119      -24.973067    -24.973067   1.000000   1.000000
  120      -24.972838    -24.972838   1.000000   1.000000
  121      -24.972303    -24.972303   1.000000   1.000000
  122      -24.971601    -24.971601   1.000000   1.000000
  123      -24.971490    -24.971490   1.000000   1.000000
  124      -24.970315    -24.970315   1.000000   1.000000
  125      -24.970090    -24.970090   1.000000   1.000000
  126      -24.969620    -24.969620   1.000000   1.000000
  127      -24.968616    -24.968616   1.000000   1.000000
  128      -24.968522    -24.968522   1.000000   1.000000
  129      -24.968304    -24.968304   1.000000   1.000000
  130      -24.967818    -24.967818   1.000000   1.000000
  131      -24.967706    -24.967706   1.000000   1.000000
  132      -24.967591    -24.967591   1.000000   1.000000
  133      -24.967449    -24.967449   1.000000   1.000000
  134      -24.967005    -24.967005   1.000000   1.000000
  135      -24.966788    -24.966788   1.000000   1.000000
  136      -24.966553    -24.966553   1.000000   1.000000
  137      -24.964929    -24.964929   1.000000   1.000000
  138      -24.964918    -24.964918   1.000000   1.000000
  139      -24.964680    -24.964680   1.000000   1.000000
  140      -24.964598    -24.964598   1.000000   1.000000
  141      -24.964474    -24.964474   1.000000   1.000000
  142      -24.964379    -24.964379   1.000000   1.000000
  143      -24.963176    -24.963176   1.000000   1.000000
  144      -24.962957    -24.962956   1.000000   1.000000
  145      -24.962792    -24.962792   1.000000   1.000000
  146      -24.962106    -24.962106   1.000000   1.000000
  147      -24.960705    -24.960704   1.000000   1.000000
  148      -24.960462    -24.960462   1.000000   1.000000
  149      -24.959671    -24.959671   1.000000   1.000000
  150      -24.959359    -24.959359   1.000000   1.000000
  151      -24.959226    -24.959226   1.000000   1.000000
  152      -24.958989    -24.958989   1.000000   1.000000
  153      -24.958557    -24.958557   1.000000   1.000000
  154      -24.958460    -24.958460   1.000000   1.000000
  155      -24.958000    -24.957999   1.000000   1.000000
  156      -24.957561    -24.957561   1.000000   1.000000
  157      -24.957490    -24.957490   1.000000   1.000000
  158      -24.957219    -24.957219   1.000000   1.000000
  159      -24.957092    -24.957092   1.000000   1.000000
  160      -24.957084    -24.957084   1.000000   1.000000
  161      -24.956555    -24.956555   1.000000   1.000000
  162      -24.955986    -24.955986   1.000000   1.000000
  163      -24.955486    -24.955486   1.000000   1.000000
  164      -24.955428    -24.955428   1.000000   1.000000
  165      -24.955166    -24.955166   1.000000   1.000000
  166      -24.955132    -24.955132   1.000000   1.000000
  167      -24.954736    -24.954736   1.000000   1.000000
  168      -24.954301    -24.954301   1.000000   1.000000
  169      -24.954084    -24.954083   1.000000   1.000000
  170      -24.952673    -24.952672   1.000000   1.000000
  171      -24.951444    -24.951444   1.000000   1.000000
  172      -24.951328    -24.951328   1.000000   1.000000
  173      -24.950708    -24.950708   1.000000   1.000000
  174      -24.950695    -24.950695   1.000000   1.000000
  175      -24.950552    -24.950552   1.000000   1.000000
  176      -24.950189    -24.950189   1.000000   1.000000
  177      -24.949674    -24.949674   1.000000   1.000000
  178      -24.949081    -24.949080   1.000000   1.000000
  179      -24.948956    -24.948956   1.000000   1.000000
  180      -24.948653    -24.948653   1.000000   1.000000
  181      -24.948606    -24.948606   1.000000   1.000000
  182      -24.948471    -24.948471   1.000000   1.000000
  183      -24.948408    -24.948408   1.000000   1.000000
  184      -24.948212    -24.948212   1.000000   1.000000
  185      -24.948116    -24.948116   1.000000   1.000000
  186      -24.948051    -24.948051   1.000000   1.000000
  187      -24.948016    -24.948016   1.000000   1.000000
  188      -24.947724    -24.947724   1.000000   1.000000
  189      -24.947547    -24.947547   1.000000   1.000000
  190      -24.947200    -24.947200   1.000000   1.000000
  191      -24.946299    -24.946299   1.000000   1.000000
  192      -24.946276    -24.946276   1.000000   1.000000
  193      -24.946085    -24.946084   1.000000   1.000000
  194      -24.945986    -24.945986   1.000000   1.000000
  195      -24.945627    -24.945627   1.000000   1.000000
  196      -24.943833    -24.943833   1.000000   1.000000
  197      -24.943798    -24.943798   1.000000   1.000000
  198      -24.943737    -24.943738   1.000000   1.000000
  199      -24.943402    -24.943402   1.000000   1.000000
  200      -24.942821    -24.942821   1.000000   1.000000
  201      -24.942550    -24.942549   1.000000   1.000000
  202      -24.942421    -24.942421   1.000000   1.000000
  203      -24.942333    -24.942333   1.000000   1.000000
  204      -24.941624    -24.941624   1.000000   1.000000
  205      -24.941081    -24.941081   1.000000   1.000000
  206      -24.940751    -24.940751   1.000000   1.000000
  207      -24.940673    -24.940673   1.000000   1.000000
  208      -24.940000    -24.940000   1.000000   1.000000
  209      -24.939489    -24.939488   1.000000   1.000000
  210      -24.939142    -24.939141   1.000000   1.000000
  211      -24.938713    -24.938713   1.000000   1.000000
  212      -24.937736    -24.937736   1.000000   1.000000
  213      -24.933730    -24.933729   1.000000   1.000000
  214      -24.933470    -24.933470   1.000000   1.000000
  215      -24.932661    -24.932661   1.000000   1.000000
  216      -24.931921    -24.931921   1.000000   1.000000
  217      -24.931127    -24.931127   1.000000   1.000000
  218      -24.930586    -24.930586   1.000000   1.000000
  219      -24.926630    -24.926630   1.000000   1.000000
  220      -24.926569    -24.926569   1.000000   1.000000
  221      -24.924932    -24.924932   1.000000   1.000000
  222      -24.924483    -24.924483   1.000000   1.000000
  223      -24.921088    -24.921088   1.000000   1.000000
  224      -24.921016    -24.921016   1.000000   1.000000
  225      -24.915157    -24.915157   1.000000   1.000000
  226      -24.915043    -24.915043   1.000000   1.000000
  227      -24.906117    -24.906117   1.000000   1.000000
  228      -24.906101    -24.906101   1.000000   1.000000
  229      -24.904860    -24.904860   1.000000   1.000000
  230      -24.904797    -24.904797   1.000000   1.000000
  231      -24.893728    -24.893728   1.000000   1.000000
  232      -24.893392    -24.893392   1.000000   1.000000
  233      -24.890619    -24.890619   1.000000   1.000000
  234      -24.889515    -24.889515   1.000000   1.000000
  235      -24.887090    -24.887090   1.000000   1.000000
  236      -24.886507    -24.886507   1.000000   1.000000
  237      -24.858981    -24.858981   1.000000   1.000000
  238      -24.858627    -24.858627   1.000000   1.000000
  239      -24.854755    -24.854755   1.000000   1.000000
  240      -24.854404    -24.854404   1.000000   1.000000
  241      -24.157228    -24.157228   1.000000   1.000000
  242      -24.156752    -24.156752   1.000000   1.000000
  243      -24.148607    -24.148607   1.000000   1.000000
  244      -24.134466    -24.134466   1.000000   1.000000
  245      -24.127869    -24.127869   1.000000   1.000000
  246      -11.357448    -11.357448   1.000000   1.000000
  247      -10.969134    -10.969134   1.000000   1.000000
  248      -10.953664    -10.953664   1.000000   1.000000
  249      -10.890888    -10.890887   1.000000   1.000000
  250      -10.873942    -10.873942   1.000000   1.000000
  251      -10.865105    -10.865105   1.000000   1.000000
  252      -10.848658    -10.848658   1.000000   1.000000
  253      -10.568011    -10.568011   1.000000   1.000000
  254      -10.561200    -10.561199   1.000000   1.000000
  255      -10.550467    -10.550467   1.000000   1.000000
  256      -10.546258    -10.546258   1.000000   1.000000
  257      -10.534959    -10.534959   1.000000   1.000000
  258      -10.532172    -10.532172   1.000000   1.000000
  259      -10.528850    -10.528850   1.000000   1.000000
  260      -10.525129    -10.525129   1.000000   1.000000
  261      -10.523320    -10.523320   1.000000   1.000000
  262      -10.506269    -10.506269   1.000000   1.000000
  263      -10.295248    -10.295248   1.000000   1.000000
  264      -10.292071    -10.292071   1.000000   1.000000
  265      -10.270431    -10.270431   1.000000   1.000000
  266      -10.263989    -10.263989   1.000000   1.000000
  267      -10.228776    -10.228776   1.000000   1.000000
  268      -10.223164    -10.223164   1.000000   1.000000
  269      -10.214674    -10.214674   1.000000   1.000000
  270      -10.202590    -10.202590   1.000000   1.000000
  271       -9.909840     -9.909840   1.000000   1.000000
  272       -9.901559     -9.901559   1.000000   1.000000
  273       -9.613931     -9.613931   1.000000   1.000000
  274       -9.612328     -9.612329   1.000000   1.000000
  275       -9.597514     -9.597513   1.000000   1.000000
  276       -9.596179     -9.596179   1.000000   1.000000
  277       -9.463732     -9.463732   1.000000   1.000000
  278       -9.459605     -9.459605   1.000000   1.000000
  279       -9.413684     -9.413684   1.000000   1.000000
  280       -9.398023     -9.398023   1.000000   1.000000
  281       -9.388738     -9.388738   1.000000   1.000000
  282       -9.384247     -9.384247   1.000000   1.000000
  283       -9.382725     -9.382725   1.000000   1.000000
  284       -9.378968     -9.378968   1.000000   1.000000
  285       -9.375696     -9.375696   1.000000   1.000000
  286       -9.368930     -9.368930   1.000000   1.000000
  287       -9.201214     -9.201215   1.000000   1.000000
  288       -9.196453     -9.196453   1.000000   1.000000
  289       -9.194702     -9.194702   1.000000   1.000000
  290       -9.188965     -9.188965   1.000000   1.000000
  291       -9.034982     -9.034982   1.000000   1.000000
  292       -8.907948     -8.907948   1.000000   1.000000
  293       -8.895343     -8.895343   1.000000   1.000000
  294       -8.825470     -8.825470   1.000000   1.000000
  295       -8.818332     -8.818332   1.000000   1.000000
  296       -8.809954     -8.809955   1.000000   1.000000
  297       -8.757340     -8.757340   1.000000   1.000000
  298       -8.703417     -8.703417   1.000000   1.000000
  299       -8.695660     -8.695660   1.000000   1.000000
  300       -8.692525     -8.692525   1.000000   1.000000
  301       -8.638462     -8.638462   1.000000   1.000000
  302       -8.613302     -8.613302   1.000000   1.000000
  303       -8.606150     -8.606150   1.000000   1.000000
  304       -8.601440     -8.601440   1.000000   1.000000
  305       -8.600581     -8.600581   1.000000   1.000000
  306       -8.596751     -8.596751   1.000000   1.000000
  307       -8.592578     -8.592579   1.000000   1.000000
  308       -8.592476     -8.592476   1.000000   1.000000
  309       -8.537462     -8.537462   1.000000   1.000000
  310       -8.529044     -8.529045   1.000000   1.000000
  311       -8.496180     -8.496179   1.000000   1.000000
  312       -8.461070     -8.461070   1.000000   1.000000
  313       -8.450886     -8.450887   1.000000   1.000000
  314       -8.449831     -8.449832   1.000000   1.000000
  315       -8.447210     -8.447210   1.000000   1.000000
  316       -8.444310     -8.444310   1.000000   1.000000
  317       -8.437145     -8.437145   1.000000   1.000000
  318       -8.437005     -8.437005   1.000000   1.000000
  319       -8.392611     -8.392610   1.000000   1.000000
  320       -8.381299     -8.381299   1.000000   1.000000
  321       -8.374525     -8.374525   1.000000   1.000000
  322       -8.372003     -8.372003   1.000000   1.000000
  323       -8.371661     -8.371661   1.000000   1.000000
  324       -8.368090     -8.368090   1.000000   1.000000
  325       -8.365965     -8.365965   1.000000   1.000000
  326       -8.364817     -8.364817   1.000000   1.000000
  327       -8.197801     -8.197801   1.000000   1.000000
  328       -8.182231     -8.182231   1.000000   1.000000
  329       -8.178695     -8.178696   1.000000   1.000000
  330       -8.175971     -8.175972   1.000000   1.000000
  331       -8.142977     -8.142977   1.000000   1.000000
  332       -8.138812     -8.138813   1.000000   1.000000
  333       -8.113181     -8.113181   1.000000   1.000000
  334       -8.111253     -8.111253   1.000000   1.000000
  335       -8.105961     -8.105961   1.000000   1.000000
  336       -8.102340     -8.102340   1.000000   1.000000
  337       -8.100388     -8.100388   1.000000   1.000000
  338       -8.090390     -8.090390   1.000000   1.000000
  339       -8.089552     -8.089552   1.000000   1.000000
  340       -8.087612     -8.087612   1.000000   1.000000
  341       -8.084551     -8.084551   1.000000   1.000000
  342       -6.897122     -6.897122   1.000000   1.000000
  343       -6.271006     -6.271006   1.000000   1.000000
  344       -6.270350     -6.270350   1.000000   1.000000
  345       -6.114929     -6.114929   1.000000   1.000000
  346       -6.108796     -6.108797   1.000000   1.000000
  347       -6.101482     -6.101482   1.000000   1.000000
  348       -6.095281     -6.095281   1.000000   1.000000
  349       -5.977295     -5.977296   1.000000   1.000000
  350       -5.954359     -5.954360   1.000000   1.000000
  351       -5.940733     -5.940733   1.000000   1.000000
  352       -5.934418     -5.934418   1.000000   1.000000
  353       -5.932133     -5.932133   1.000000   1.000000
  354       -5.930380     -5.930380   1.000000   1.000000
  355       -5.926425     -5.926425   1.000000   1.000000
  356       -5.920751     -5.920751   1.000000   1.000000
  357       -5.916881     -5.916881   1.000000   1.000000
  358       -5.913968     -5.913968   1.000000   1.000000
  359       -5.880123     -5.880123   1.000000   1.000000
  360       -5.822068     -5.822068   1.000000   1.000000
  361       -5.810810     -5.810811   1.000000   1.000000
  362       -5.804829     -5.804830   1.000000   1.000000
  363       -5.798860     -5.798860   1.000000   1.000000
  364       -5.785984     -5.785984   1.000000   1.000000
  365       -5.779081     -5.779082   1.000000   1.000000
  366       -5.777124     -5.777124   1.000000   1.000000
  367       -5.773994     -5.773994   1.000000   1.000000
  368       -5.764877     -5.764877   1.000000   1.000000
  369       -5.759554     -5.759554   1.000000   1.000000
  370       -5.757030     -5.757030   1.000000   1.000000
  371       -5.745089     -5.745089   1.000000   1.000000
  372       -5.738989     -5.738989   1.000000   1.000000
  373       -5.727214     -5.727214   1.000000   1.000000
  374       -5.723826     -5.723826   1.000000   1.000000
  375       -5.718709     -5.718709   1.000000   1.000000
  376       -5.715837     -5.715837   1.000000   1.000000
  377       -5.710477     -5.710477   1.000000   1.000000
  378       -5.709934     -5.709934   1.000000   1.000000
  379       -5.708918     -5.708918   1.000000   1.000000
  380       -5.706310     -5.706311   1.000000   1.000000
  381       -5.698783     -5.698783   1.000000   1.000000
  382       -5.693825     -5.693825   1.000000   1.000000
  383       -5.685926     -5.685926   1.000000   1.000000
  384       -5.657726     -5.657726   1.000000   1.000000
  385       -5.656123     -5.656123   1.000000   1.000000
  386       -5.651069     -5.651069   1.000000   1.000000
  387       -5.650854     -5.650854   1.000000   1.000000
  388       -5.642178     -5.642178   1.000000   1.000000
  389       -5.608714     -5.608714   1.000000   1.000000
  390       -5.548999     -5.548999   1.000000   1.000000
  391       -5.540988     -5.540988   1.000000   1.000000
  392       -5.536424     -5.536424   1.000000   1.000000
  393       -5.536077     -5.536077   1.000000   1.000000
  394       -5.527460     -5.527460   1.000000   1.000000
  395       -5.524064     -5.524064   1.000000   1.000000
  396       -5.521419     -5.521419   1.000000   1.000000
  397       -5.517728     -5.517728   1.000000   1.000000
  398       -5.516250     -5.516250   1.000000   1.000000
  399       -5.516088     -5.516088   1.000000   1.000000
  400       -5.514806     -5.514806   1.000000   1.000000
  401       -5.512767     -5.512767   1.000000   1.000000
  402       -5.509818     -5.509819   1.000000   1.000000
  403       -5.509509     -5.509509   1.000000   1.000000
  404       -5.509356     -5.509356   1.000000   1.000000
  405       -5.505689     -5.505689   1.000000   1.000000
  406       -5.505586     -5.505586   1.000000   1.000000
  407       -5.504720     -5.504720   1.000000   1.000000
  408       -5.503539     -5.503539   1.000000   1.000000
  409       -5.502458     -5.502458   1.000000   1.000000
  410       -5.500974     -5.500974   1.000000   1.000000
  411       -5.500623     -5.500623   1.000000   1.000000
  412       -5.497894     -5.497894   1.000000   1.000000
  413       -5.496926     -5.496926   1.000000   1.000000
  414       -5.495503     -5.495503   1.000000   1.000000
  415       -5.494073     -5.494073   1.000000   1.000000
  416       -5.492552     -5.492552   1.000000   1.000000
  417       -5.491231     -5.491231   1.000000   1.000000
  418       -5.489089     -5.489089   1.000000   1.000000
  419       -5.488942     -5.488942   1.000000   1.000000
  420       -5.487120     -5.487120   1.000000   1.000000
  421       -5.486101     -5.486101   1.000000   1.000000
  422       -5.484734     -5.484734   1.000000   1.000000
  423       -5.483430     -5.483430   1.000000   1.000000
  424       -5.483124     -5.483124   1.000000   1.000000
  425       -5.482680     -5.482680   1.000000   1.000000
  426       -5.481461     -5.481461   1.000000   1.000000
  427       -5.479020     -5.479021   1.000000   1.000000
  428       -5.477604     -5.477604   1.000000   1.000000
  429       -5.477179     -5.477179   1.000000   1.000000
  430       -5.475326     -5.475326   1.000000   1.000000
  431       -5.474069     -5.474069   1.000000   1.000000
  432       -5.471618     -5.471618   1.000000   1.000000
  433       -5.467820     -5.467820   1.000000   1.000000
  434       -5.464804     -5.464804   1.000000   1.000000
  435       -5.461918     -5.461918   1.000000   1.000000
  436       -5.461701     -5.461701   1.000000   1.000000
  437       -5.457480     -5.457480   1.000000   1.000000
  438       -5.452831     -5.452831   1.000000   1.000000
  439       -5.452223     -5.452223   1.000000   1.000000
  440       -5.446339     -5.446339   1.000000   1.000000
  441       -5.443643     -5.443643   1.000000   1.000000
  442       -5.438538     -5.438538   1.000000   1.000000
  443       -5.437897     -5.437897   1.000000   1.000000
  444       -5.433697     -5.433697   1.000000   1.000000
  445       -5.431318     -5.431318   1.000000   1.000000
  446       -5.429770     -5.429770   1.000000   1.000000
  447       -5.426360     -5.426360   1.000000   1.000000
  448       -5.425164     -5.425164   1.000000   1.000000
  449       -5.423667     -5.423667   1.000000   1.000000
  450       -5.422427     -5.422427   1.000000   1.000000
  451       -5.420976     -5.420976   1.000000   1.000000
  452       -5.419717     -5.419717   1.000000   1.000000
  453       -5.415507     -5.415507   1.000000   1.000000
  454       -5.415301     -5.415301   1.000000   1.000000
  455       -5.414804     -5.414804   1.000000   1.000000
  456       -5.413172     -5.413172   1.000000   1.000000
  457       -5.411767     -5.411767   1.000000   1.000000
  458       -5.408103     -5.408103   1.000000   1.000000
  459       -5.404998     -5.404998   1.000000   1.000000
  460       -5.404594     -5.404594   1.000000   1.000000
  461       -5.402042     -5.402042   1.000000   1.000000
  462       -5.398213     -5.398213   1.000000   1.000000
  463       -5.395300     -5.395300   1.000000   1.000000
  464       -5.394851     -5.394851   1.000000   1.000000
  465       -5.390113     -5.390113   1.000000   1.000000
  466       -5.386353     -5.386353   1.000000   1.000000
  467       -5.385307     -5.385307   1.000000   1.000000
  468       -5.384009     -5.384009   1.000000   1.000000
  469       -5.380264     -5.380264   1.000000   1.000000
  470       -5.379280     -5.379281   1.000000   1.000000
  471       -5.376163     -5.376163   1.000000   1.000000
  472       -5.375295     -5.375295   1.000000   1.000000
  473       -5.373911     -5.373911   1.000000   1.000000
  474       -5.370890     -5.370890   1.000000   1.000000
  475       -5.369264     -5.369264   1.000000   1.000000
  476       -5.367047     -5.367047   1.000000   1.000000
  477       -5.365858     -5.365858   1.000000   1.000000
  478       -5.365087     -5.365087   1.000000   1.000000
  479       -5.364787     -5.364787   1.000000   1.000000
  480       -5.362824     -5.362824   1.000000   1.000000
  481       -5.361104     -5.361104   1.000000   1.000000
  482       -5.357644     -5.357644   1.000000   1.000000
  483       -5.355805     -5.355805   1.000000   1.000000
  484       -5.353379     -5.353379   1.000000   1.000000
  485       -5.352640     -5.352640   1.000000   1.000000
  486       -5.351982     -5.351982   1.000000   1.000000
  487       -5.350021     -5.350021   1.000000   1.000000
  488       -5.348768     -5.348768   1.000000   1.000000
  489       -5.347365     -5.347365   1.000000   1.000000
  490       -5.346717     -5.346717   1.000000   1.000000
  491       -5.345072     -5.345072   1.000000   1.000000
  492       -5.344880     -5.344880   1.000000   1.000000
  493       -5.343461     -5.343461   1.000000   1.000000
  494       -5.342872     -5.342872   1.000000   1.000000
  495       -5.341429     -5.341429   1.000000   1.000000
  496       -5.341089     -5.341089   1.000000   1.000000
  497       -5.339857     -5.339857   1.000000   1.000000
  498       -5.336810     -5.336810   1.000000   1.000000
  499       -5.335844     -5.335844   1.000000   1.000000
  500       -5.335363     -5.335363   1.000000   1.000000
  501       -5.334330     -5.334330   1.000000   1.000000
  502       -5.333744     -5.333744   1.000000   1.000000
  503       -5.333407     -5.333407   1.000000   1.000000
  504       -5.330080     -5.330080   1.000000   1.000000
  505       -5.327601     -5.327601   1.000000   1.000000
  506       -5.325465     -5.325465   1.000000   1.000000
  507       -5.324744     -5.324744   1.000000   1.000000
  508       -5.322088     -5.322088   1.000000   1.000000
  509       -5.321426     -5.321426   1.000000   1.000000
  510       -5.320396     -5.320396   1.000000   1.000000
  511       -5.319918     -5.319918   1.000000   1.000000
  512       -5.319152     -5.319152   1.000000   1.000000