       N       E                     dE             d eps       ncg     rms          ort
SDA:   1    -0.112714515102E+04   -0.11271E+04   -0.14867E+02  1136   0.372E+02 0.000E+00
DMP:   2    -0.113186582730E+04   -0.47207E+01   -0.77403E+01  1136   0.244E+02-0.131E+02
DMP:   3    -0.113595308575E+04   -0.40873E+01   -0.13226E+01  1136   0.288E+01 0.112E+01
DMP:   4    -0.113658003226E+04   -0.62695E+00   -0.10865E+01  1136   0.277E+01-0.149E+00
DMP:   5    -0.113709146883E+04   -0.51144E+00   -0.29091E+00  1136   0.782E+00-0.143E+00
DMP:   6    -0.113729473144E+04   -0.20326E+00   -0.17574E+00  1136   0.328E+00 0.293E+00
DMP:   7    -0.113737668524E+04   -0.81954E-01   -0.90772E-01  1136   0.238E+00-0.285E-01
DMP:   8    -0.113743011726E+04   -0.53432E-01   -0.19118E-01  1136   0.325E-01 0.400E-01
DMP:   9    -0.113744327644E+04   -0.13159E-01   -0.15457E-01  1136   0.317E-01 0.182E-01
DMP:  10    -0.113744980881E+04   -0.65324E-02   -0.73017E-02  1136   0.203E-01-0.545E-02
DMP:  11    -0.113745409877E+04   -0.42900E-02   -0.14714E-02  1136   0.248E-02 0.313E-02
DMP:  12    -0.113745518013E+04   -0.10814E-02   -0.11179E-02  1136   0.210E-02 0.181E-02
DMP:  13    -0.113745560261E+04   -0.42248E-03   -0.70991E-03  1136   0.198E-02-0.539E-03
DMP:  14    -0.113745594966E+04   -0.34705E-03   -0.17010E-03  1136   0.457E-03-0.835E-04
DMP:  15    -0.113745605740E+04   -0.10774E-03   -0.48251E-04  1136   0.622E-04 0.153E-03
DMP:  16    -0.113745608831E+04   -0.30912E-04   -0.35032E-04  1136   0.690E-04 0.486E-04
DMP:  17    -0.113745610737E+04   -0.19057E-04   -0.17611E-04  1136   0.444E-04-0.987E-06
DMP:  18    -0.113745611345E+04   -0.60797E-05   -0.63867E-05  1136   0.162E-04-0.624E-06
   1 F= -.11374561E+04 E0= -.11374561E+04  d E =-.363371E-13  mag=     0.0000
