 vasp.5.4.4.18Apr17-6-g9f103f2a35 (build Mar 26 2021 15:05:33) gamma-only       
  
 executed on             LinuxIFC date 2022.01.30  06:24:14
 running on  128 total cores
 distrk:  each k-point on  128 cores,    1 groups
 distr:  one band on NCORES_PER_BAND=   8 cores,   16 groups


--------------------------------------------------------------------------------------------------------


 INCAR:
 POTCAR:   PAW_PBE Zn 06Sep2000                   
 POTCAR:   PAW_PBE Ge_d 06Sep2000                 
 POTCAR:    PAW_PBE P 17Jan2003                   
 POTCAR:   PAW_PBE Zn 06Sep2000                   
   VRHFIN =Zn: d10 p2                                                           
   LEXCH  = PE                                                                  
   EATOM  =  1749.0928 eV,  128.5547 Ry                                         
                                                                                
   TITEL  = PAW_PBE Zn 06Sep2000                                                
   LULTRA =        F    use ultrasoft PP ?                                      
   IUNSCR =        1    unscreen: 0-lin 1-nonlin 2-no                           
   RPACOR =    2.000    partial core radius                                     
   POMASS =   65.390; ZVAL   =   12.000    mass and valenz                      
   RCORE  =    2.300    outmost cutoff radius                                   
   RWIGS  =    2.400; RWIGS  =    1.270    wigner-seitz radius (au A)           
   ENMAX  =  276.727; ENMIN  =  207.545 eV                                      
   RCLOC  =    1.828    cutoff for local pot                                    
   LCOR   =        T    correct aug charges                                     
   LPAW   =        T    paw PP                                                  
   EAUG   =  575.892                                                            
   DEXC   =    -.003                                                            
   RMAX   =    2.772    core radius for proj-oper                               
   RAUG   =    1.300    factor for augmentation sphere                          
   RDEP   =    2.324    radius for radial grids                                 
   QCUT   =   -4.510; QGAM   =    9.020    optimization parameters              
                                                                                
   Description                                                                  
     l     E      TYP  RCUT    TYP  RCUT                                        
     2   .000     23  2.300                                                     
     2   .000     23  2.300                                                     
     0   .000     23  2.300                                                     
     0   .000     23  2.300                                                     
     1  -.200     23  2.300                                                     
     1   .000     23  2.300                                                     
     3   .000      7   .000                                                     
  local pseudopotential read in
  partial core-charges read in
  atomic valenz-charges read in
  non local Contribution for L=           2  read in
    real space projection operators read in
  non local Contribution for L=           2  read in
    real space projection operators read in
  non local Contribution for L=           0  read in
    real space projection operators read in
  non local Contribution for L=           0  read in
    real space projection operators read in
  non local Contribution for L=           1  read in
    real space projection operators read in
  non local Contribution for L=           1  read in
    real space projection operators read in
    PAW grid and wavefunctions read in
 
   number of l-projection  operators is LMAX  =           6
   number of lm-projection operators is LMMAX =          18
 
 POTCAR:   PAW_PBE Ge_d 06Sep2000                 
   VRHFIN =Ge: 3d4s4p                                                           
   LEXCH  = PE                                                                  
   EATOM  =  2596.4246 eV,  190.8318 Ry                                         
                                                                                
   TITEL  = PAW_PBE Ge_d 06Sep2000                                              
   LULTRA =        F    use ultrasoft PP ?                                      
   IUNSCR =        1    unscreen: 0-lin 1-nonlin 2-no                           
   RPACOR =    2.000    partial core radius                                     
   POMASS =   72.610; ZVAL   =   14.000    mass and valenz                      
   RCORE  =    2.300    outmost cutoff radius                                   
   RWIGS  =    2.300; RWIGS  =    1.217    wigner-seitz radius (au A)           
   ENMAX  =  287.568; ENMIN  =  215.676 eV                                      
   ICORE  =        3    local potential                                         
   LCOR   =        T    correct aug charges                                     
   LPAW   =        T    paw PP                                                  
   EAUG   =  531.356                                                            
   DEXC   =     .000                                                            
   RMAX   =    2.719    core radius for proj-oper                               
   RAUG   =    1.300    factor for augmentation sphere                          
   RDEP   =    2.318    radius for radial grids                                 
   QCUT   =   -4.597; QGAM   =    9.195    optimization parameters              
                                                                                
   Description                                                                  
     l     E      TYP  RCUT    TYP  RCUT                                        
     2   .000     23  2.300                                                     
     2  -.100     23  2.300                                                     
     0   .000     23  2.300                                                     
     0   .000     23  2.300                                                     
     1   .000     23  2.300                                                     
     1   .000     23  2.300                                                     
     3  -.100      7  2.300                                                     
  local pseudopotential read in
  partial core-charges read in
  atomic valenz-charges read in
  non local Contribution for L=           2  read in
    real space projection operators read in
  non local Contribution for L=           2  read in
    real space projection operators read in
  non local Contribution for L=           0  read in
    real space projection operators read in
  non local Contribution for L=           0  read in
    real space projection operators read in
  non local Contribution for L=           1  read in
    real space projection operators read in
  non local Contribution for L=           1  read in
    real space projection operators read in
    PAW grid and wavefunctions read in
 
   number of l-projection  operators is LMAX  =           6
   number of lm-projection operators is LMMAX =          18
 
 POTCAR:    PAW_PBE P 17Jan2003                   
   VRHFIN =P : s2p3                                                             
   LEXCH  = PE                                                                  
   EATOM  =   176.0430 eV,   12.9388 Ry                                         
                                                                                
   TITEL  = PAW_PBE P 17Jan2003                                                 
   LULTRA =        F    use ultrasoft PP ?                                      
   IUNSCR =        1    unscreen: 0-lin 1-nonlin 2-no                           
   RPACOR =    1.500    partial core radius                                     
   POMASS =   30.974; ZVAL   =    5.000    mass and valenz                      
   RCORE  =    1.900    outmost cutoff radius                                   
   RWIGS  =    2.330; RWIGS  =    1.233    wigner-seitz radius (au A)           
   ENMAX  =  270.000; ENMIN  =  191.280 eV                                      
   ICORE  =        2    local potential                                         
   LCOR   =        T    correct aug charges                                     
   LPAW   =        T    paw PP                                                  
   EAUG   =  342.924                                                            
   DEXC   =    -.002                                                            
   RMAX   =    2.887    core radius for proj-oper                               
   RAUG   =    1.300    factor for augmentation sphere                          
   RDEP   =    1.931    radius for radial grids                                 
   QCUT   =   -4.330; QGAM   =    8.659    optimization parameters              
                                                                                
   Description                                                                  
     l     E      TYP  RCUT    TYP  RCUT                                        
     0   .000     23  1.900                                                     
     0   .000     23  1.900                                                     
     1   .000     23  1.900                                                     
     1   .000     23  1.900                                                     
     2   .000     23  1.900                                                     
  local pseudopotential read in
  partial core-charges read in
  atomic valenz-charges read in
  non local Contribution for L=           0  read in
    real space projection operators read in
  non local Contribution for L=           0  read in
    real space projection operators read in
  non local Contribution for L=           1  read in
    real space projection operators read in
  non local Contribution for L=           1  read in
    real space projection operators read in
    PAW grid and wavefunctions read in
 
   number of l-projection  operators is LMAX  =           4
   number of lm-projection operators is LMMAX =           8
 

 ----------------------------------------------------------------------------- 
|                                                                             |
|  ADVICE TO THIS USER RUNNING 'VASP/VAMP'   (HEAR YOUR MASTER'S VOICE ...):  |
|                                                                             |
|      You have a (more or less) 'large supercell' and for larger cells       |
|      it might be more efficient to use real space projection operators      |
|      So try LREAL= Auto  in the INCAR   file.                               |
|      Mind: If you want to do a very accurate calculations keep the          |
|      reciprocal projection scheme          (i.e. LREAL=.FALSE.)             |
|                                                                             |
 ----------------------------------------------------------------------------- 

 PAW_PBE Zn 06Sep2000                   :
 energy of atom  1       EATOM=-1749.0928
 kinetic energy error for atom=    0.0174 (will be added to EATOM!!)
 PAW_PBE Ge_d 06Sep2000                 :
 energy of atom  2       EATOM=-2596.4246
 kinetic energy error for atom=    0.0135 (will be added to EATOM!!)
  PAW_PBE P 17Jan2003                   :
 energy of atom  3       EATOM= -176.0430
 kinetic energy error for atom=    0.0024 (will be added to EATOM!!)
 
 
 POSCAR: Zn47Ge49P96                             
  positions in direct lattice
  velocities in cartesian coordinates
 exchange correlation table for  LEXCH =        8
   RHO(1)=    0.500       N(1)  =     2000
   RHO(2)=  100.500       N(2)  =     4000
 


--------------------------------------------------------------------------------------------------------


 ion  position               nearest neighbor table
   1  0.998  0.999  0.997- 120 2.34 186 2.35  99 2.36 173 2.36
   2  0.167  0.624  0.375- 128 2.36 101 2.37 127 2.37 102 2.37
   3  0.166  0.875  0.373- 102 2.36 100 2.37 103 2.38  97 2.38
   4  1.000  0.500  0.750- 105 2.37 172 2.37 170 2.37 107 2.37
   5  0.000  0.500  0.500- 128 2.36 165 2.37 107 2.37 178 2.37
   6  0.167  0.125  0.875- 120 2.36 109 2.36 119 2.37 110 2.37
   7  0.167  0.375  0.875- 105 2.37 108 2.37 111 2.37 110 2.37
   8  1.000  0.250  0.501- 180 2.36 113 2.37 178 2.37 115 2.37
   9  0.002  0.253  0.251- 189 2.34 115 2.35 162 2.36 112 2.36
  10  0.166  0.875  0.624- 118 2.37 104 2.37 117 2.37 103 2.37
  11  0.166  0.125  0.625- 118 2.37 113 2.37 119 2.37 116 2.37
  12  0.000  0.749  0.000- 121 2.36 188 2.37 123 2.37 186 2.37
  13  1.000  0.750  0.750- 181 2.36 104 2.37 170 2.37 123 2.37
  14  0.167  0.373  0.125- 125 2.37 126 2.37 111 2.37 112 2.37
  15  0.166  0.623  0.125- 124 2.37 126 2.37 121 2.37 127 2.37
  16  0.334  0.999  0.250- 129 2.36 131 2.36 100 2.37  98 2.37
  17  0.334  0.999  0.999- 152 2.36 122 2.37 109 2.37 131 2.37
  18  0.500  0.624  0.375- 133 2.37 134 2.37 160 2.37 159 2.37
  19  0.500  0.875  0.375- 129 2.37 132 2.37 135 2.37 134 2.37
  20  0.333  0.500  0.751- 139 2.36 106 2.37 137 2.37 108 2.37
  21  0.333  0.500  0.500- 101 2.37 139 2.37 160 2.37 114 2.37
  22  0.500  0.125  0.875- 152 2.37 141 2.37 151 2.37 142 2.37
  23  0.500  0.376  0.874- 140 2.36 137 2.36 142 2.37 143 2.37
  24  0.333  0.250  0.500- 114 2.37 145 2.37 147 2.37 116 2.37
  25  0.333  0.250  0.250- 125 2.37 144 2.37 147 2.37  98 2.38
  26  0.500  0.875  0.626- 136 2.37 135 2.37 149 2.37 150 2.37
  27  0.499  0.125  0.625- 148 2.36 145 2.37 150 2.37 151 2.37
  28  0.336  0.746  0.998- 122 2.35 155 2.35 124 2.36 153 2.37
  29  0.333  0.750  0.749- 136 2.37 117 2.37 106 2.37 155 2.37
  30  0.500  0.375  0.125- 157 2.37 144 2.37 158 2.37 143 2.37
  31  0.501  0.625  0.125- 153 2.36 156 2.37 159 2.37 158 2.37
  32  0.666  1.000  0.251- 132 2.36 130 2.36 161 2.37 163 2.37
  33  0.667  0.000  0.000- 184 2.37 141 2.37 154 2.37 163 2.38
  34  0.834  0.626  0.375- 191 2.37 165 2.37 192 2.37 166 2.37
  35  0.834  0.877  0.375- 167 2.36 161 2.37 166 2.38 164 2.38
  36  0.667  0.499  0.750- 138 2.36 171 2.37 140 2.37 169 2.37
  37  0.667  0.501  0.500- 133 2.37 192 2.37 171 2.37 146 2.37
  38  0.833  0.125  0.877- 184 2.37 183 2.37 174 2.37 173 2.37
  39  0.833  0.375  0.875- 172 2.37 169 2.37 174 2.37 175 2.37
  40  0.664  0.252  0.504- 179 2.35 146 2.35 177 2.36 148 2.37
  41  0.666  0.251  0.251- 157 2.36 179 2.37 176 2.37 130 2.37
  42  0.833  0.875  0.626- 181 2.36 168 2.37 182 2.37 167 2.37
  43  0.834  0.125  0.627- 177 2.37 183 2.37 180 2.37 182 2.37
  44  0.667  0.750  0.000- 187 2.37 156 2.37 154 2.37 185 2.37
  45  0.667  0.750  0.750- 168 2.37 138 2.37 149 2.37 187 2.37
  46  0.833  0.375  0.125- 189 2.36 176 2.36 190 2.37 175 2.37
  47  0.834  0.625  0.125- 191 2.37 188 2.37 190 2.37 185 2.37
  48  0.172  0.871  0.121-  99 2.31 122 2.33 100 2.34 121 2.34
  49  0.169  0.124  0.123- 109 2.32  99 2.34  98 2.34 112 2.35
  50  1.000  0.750  0.500- 104 2.34 165 2.34 167 2.34 102 2.34
  51  0.002  0.749  0.250- 102 2.33 191 2.33 121 2.34 164 2.34
  52  0.166  0.375  0.625- 107 2.34 108 2.34 114 2.34 113 2.34
  53  0.166  0.625  0.625- 107 2.34 106 2.34 101 2.34 104 2.34
  54  1.000  0.250  0.000- 175 2.34 110 2.34 112 2.34 173 2.34
  55  1.000  0.250  0.751- 183 2.34 172 2.34 110 2.34 113 2.34
  56  0.167  0.125  0.374- 115 2.33  98 2.34 116 2.34  97 2.36
  57  0.167  0.375  0.376- 128 2.34 114 2.34 125 2.34 115 2.34
  58  0.001  0.000  0.751- 118 2.34 120 2.34 183 2.35 181 2.35
  59  0.998  0.000  0.501- 167 2.33 118 2.33 180 2.34  97 2.34
  60  0.166  0.625  0.875- 106 2.34 123 2.34 105 2.34 124 2.34
  61  0.168  0.874  0.875- 122 2.34 117 2.34 123 2.34 120 2.35
  62  0.999  0.499  0.250- 191 2.34 189 2.34 126 2.35 128 2.35
  63  0.000  0.499  0.000- 126 2.34 105 2.34 175 2.34 188 2.34
  64  0.500  0.875  0.125- 154 2.34 131 2.34 153 2.34 132 2.34
  65  0.500  0.125  0.125- 144 2.34 141 2.34 130 2.34 131 2.34
  66  0.333  0.750  0.499- 134 2.34 101 2.34 136 2.34 103 2.35
  67  0.334  0.749  0.250- 134 2.34 100 2.34 127 2.34 153 2.34
  68  0.499  0.376  0.625- 146 2.33 139 2.34 140 2.34 145 2.34
  69  0.500  0.625  0.625- 139 2.34 138 2.34 136 2.34 133 2.34
  70  0.334  0.250  0.999- 111 2.34 142 2.34 144 2.34 109 2.34
  71  0.333  0.250  0.750- 145 2.34 142 2.34 108 2.34 119 2.34
  72  0.500  0.125  0.375- 147 2.34 130 2.34 148 2.34 129 2.34
  73  0.500  0.375  0.375- 160 2.34 146 2.34 157 2.34 147 2.34
  74  0.333  0.000  0.750- 150 2.34 117 2.34 119 2.34 152 2.34
  75  0.333  1.000  0.500- 103 2.34 129 2.34 150 2.34 116 2.34
  76  0.501  0.625  0.874- 155 2.33 138 2.34 137 2.34 156 2.34
  77  0.500  0.875  0.875- 149 2.34 155 2.34 152 2.34 154 2.34
  78  0.333  0.500  0.250- 127 2.34 158 2.34 160 2.34 125 2.34
  79  0.333  0.499  0.000- 124 2.34 111 2.34 158 2.34 137 2.34
  80  0.833  0.876  0.125- 186 2.33 163 2.34 185 2.34 164 2.36
  81  0.831  0.127  0.126- 176 2.32 162 2.34 163 2.34 173 2.35
  82  0.667  0.751  0.500- 135 2.34 168 2.34 133 2.34 166 2.35
  83  0.667  0.750  0.250- 166 2.34 132 2.34 159 2.34 185 2.34
  84  0.834  0.375  0.625- 171 2.34 178 2.34 172 2.34 177 2.34
  85  0.834  0.625  0.625- 170 2.34 171 2.34 168 2.34 165 2.34
  86  0.666  0.251  1.000- 174 2.34 143 2.34 141 2.34 176 2.34
  87  0.667  0.250  0.751- 177 2.34 174 2.34 151 2.34 140 2.34
  88  0.828  0.129  0.379- 162 2.31 179 2.33 161 2.34 180 2.34
  89  0.832  0.375  0.376- 179 2.34 192 2.34 178 2.34 189 2.35
  90  0.667  0.000  0.750- 182 2.34 151 2.34 149 2.34 184 2.34
  91  0.666  1.000  0.501- 135 2.34 161 2.34 182 2.34 148 2.34
  92  0.834  0.625  0.875- 170 2.34 169 2.34 187 2.34 188 2.34
  93  0.833  0.874  0.875- 181 2.34 187 2.34 184 2.34 186 2.34
  94  0.667  0.500  0.250- 159 2.34 192 2.34 190 2.34 157 2.34
  95  0.667  0.500  0.000- 156 2.34 143 2.34 169 2.34 190 2.34
  96  0.000  0.007  0.243-  97 2.47 164 2.47 162 2.51  99 2.51
  97  0.082  0.001  0.378-  59 2.34  56 2.36   3 2.38  96 2.47
  98  0.249  0.124  0.250-  49 2.34  56 2.34  16 2.37  25 2.38
  99  0.093  0.995  0.113-  48 2.31  49 2.34   1 2.36  96 2.51
 100  0.251  0.873  0.248-  48 2.34  67 2.34   3 2.37  16 2.37
 101  0.250  0.626  0.501-  53 2.34  66 2.34   2 2.37  21 2.37
 102  0.082  0.749  0.375-  51 2.33  50 2.34   3 2.36   2 2.37
 103  0.250  0.875  0.499-  75 2.34  66 2.35  10 2.37   3 2.38
 104  0.083  0.749  0.624-  50 2.34  53 2.34  10 2.37  13 2.37
 105  0.083  0.501  0.876-  63 2.34  60 2.34   7 2.37   4 2.37
 106  0.248  0.625  0.750-  60 2.34  53 2.34  20 2.37  29 2.37
 107  0.084  0.500  0.625-  52 2.34  53 2.34   4 2.37   5 2.37
 108  0.250  0.374  0.749-  52 2.34  71 2.34   7 2.37  20 2.37
 109  0.251  0.126  0.000-  49 2.32  70 2.34   6 2.36  17 2.37
 110  0.082  0.250  0.876-  54 2.34  55 2.34   6 2.37   7 2.37
 111  0.252  0.374  0.000-  70 2.34  79 2.34   7 2.37  14 2.37
 112  0.084  0.246  0.124-  54 2.34  49 2.35   9 2.36  14 2.37
 113  0.083  0.251  0.627-  52 2.34  55 2.34   8 2.37  11 2.37
 114  0.249  0.375  0.500-  57 2.34  52 2.34  24 2.37  21 2.37
 115  0.085  0.250  0.376-  56 2.33  57 2.34   9 2.35   8 2.37
 116  0.249  0.123  0.498-  56 2.34  75 2.34  11 2.37  24 2.37
 117  0.250  0.876  0.750-  74 2.34  61 2.34  10 2.37  29 2.37
 118  0.081  1.000  0.625-  59 2.33  58 2.34  10 2.37  11 2.37
 119  0.251  0.125  0.750-  74 2.34  71 2.34   6 2.37  11 2.37
 120  0.085  0.999  0.876-   1 2.34  58 2.34  61 2.35   6 2.36
 121  0.084  0.750  0.125-  51 2.34  48 2.34  12 2.36  15 2.37
 122  0.254  0.871  0.996-  48 2.33  61 2.34  28 2.35  17 2.37
 123  0.085  0.750  0.875-  60 2.34  61 2.34  12 2.37  13 2.37
 124  0.250  0.623  0.999-  79 2.34  60 2.34  28 2.36  15 2.37
 125  0.250  0.376  0.251-  57 2.34  78 2.34  25 2.37  14 2.37
 126  0.082  0.498  0.125-  63 2.34  62 2.35  15 2.37  14 2.37
 127  0.251  0.625  0.250-  78 2.34  67 2.34   2 2.37  15 2.37
 128  0.083  0.498  0.373-  57 2.34  62 2.35   2 2.36   5 2.36
 129  0.417  0.001  0.376-  75 2.34  72 2.34  16 2.36  19 2.37
 130  0.582  0.125  0.250-  72 2.34  65 2.34  32 2.36  41 2.37
 131  0.418  1.000  0.125-  64 2.34  65 2.34  16 2.36  17 2.37
 132  0.583  0.874  0.249-  83 2.34  64 2.34  32 2.36  19 2.37
 133  0.584  0.627  0.501-  69 2.34  82 2.34  18 2.37  37 2.37
 134  0.416  0.750  0.375-  67 2.34  66 2.34  18 2.37  19 2.37
 135  0.584  0.875  0.500-  91 2.34  82 2.34  26 2.37  19 2.37
 136  0.416  0.749  0.623-  69 2.34  66 2.34  26 2.37  29 2.37
 137  0.417  0.501  0.876-  79 2.34  76 2.34  23 2.36  20 2.37
 138  0.583  0.624  0.749-  76 2.34  69 2.34  36 2.36  45 2.37
 139  0.417  0.501  0.626-  68 2.34  69 2.34  20 2.36  21 2.37
 140  0.583  0.374  0.749-  87 2.34  68 2.34  23 2.36  36 2.37
 141  0.583  0.126  0.001-  65 2.34  86 2.34  33 2.37  22 2.37
 142  0.416  0.250  0.874-  70 2.34  71 2.34  23 2.37  22 2.37
 143  0.584  0.376  1.000-  86 2.34  95 2.34  23 2.37  30 2.37
 144  0.417  0.249  0.124-  65 2.34  70 2.34  25 2.37  30 2.37
 145  0.416  0.251  0.626-  71 2.34  68 2.34  27 2.37  24 2.37
 146  0.581  0.377  0.501-  68 2.33  73 2.34  40 2.35  37 2.37
 147  0.418  0.250  0.375-  72 2.34  73 2.34  25 2.37  24 2.37
 148  0.583  0.124  0.499-  72 2.34  91 2.34  27 2.36  40 2.37
 149  0.584  0.876  0.751-  77 2.34  90 2.34  45 2.37  26 2.37
 150  0.415  0.000  0.625-  74 2.34  75 2.34  27 2.37  26 2.37
 151  0.585  0.125  0.750-  90 2.34  87 2.34  22 2.37  27 2.37
 152  0.417  0.999  0.873-  77 2.34  74 2.34  17 2.36  22 2.37
 153  0.417  0.751  0.126-  64 2.34  67 2.34  31 2.36  28 2.37
 154  0.582  0.875  0.000-  64 2.34  77 2.34  33 2.37  44 2.37
 155  0.419  0.749  0.873-  76 2.33  77 2.34  28 2.35  29 2.37
 156  0.584  0.624  0.999-  95 2.34  76 2.34  31 2.37  44 2.37
 157  0.583  0.377  0.251-  73 2.34  94 2.34  41 2.36  30 2.37
 158  0.415  0.500  0.125-  78 2.34  79 2.34  30 2.37  31 2.37
 159  0.585  0.625  0.250-  94 2.34  83 2.34  31 2.37  18 2.37
 160  0.416  0.499  0.374-  73 2.34  78 2.34  21 2.37  18 2.37
 161  0.749  0.002  0.377-  88 2.34  91 2.34  35 2.37  32 2.37
 162  0.907  0.137  0.255-  88 2.31  81 2.34   9 2.36  96 2.51
 163  0.751  0.000  0.126-  81 2.34  80 2.34  32 2.37  33 2.38
 164  0.918  0.872  0.249-  51 2.34  80 2.36  35 2.38  96 2.47
 165  0.917  0.626  0.501-  50 2.34  85 2.34  34 2.37   5 2.37
 166  0.750  0.751  0.375-  83 2.34  82 2.35  34 2.37  35 2.38
 167  0.918  0.875  0.501-  59 2.33  50 2.34  35 2.36  42 2.37
 168  0.750  0.749  0.624-  85 2.34  82 2.34  42 2.37  45 2.37
 169  0.750  0.501  0.876-  92 2.34  95 2.34  39 2.37  36 2.37
 170  0.916  0.625  0.750-  92 2.34  85 2.34   4 2.37  13 2.37
 171  0.752  0.500  0.625-  84 2.34  85 2.34  36 2.37  37 2.37
 172  0.917  0.374  0.749-  55 2.34  84 2.34  39 2.37   4 2.37
 173  0.916  0.126  0.004-  54 2.34  81 2.35   1 2.36  38 2.37
 174  0.748  0.250  0.876-  86 2.34  87 2.34  39 2.37  38 2.37
 175  0.918  0.374  0.000-  54 2.34  63 2.34  46 2.37  39 2.37
 176  0.749  0.250  0.124-  81 2.32  86 2.34  46 2.36  41 2.37
 177  0.750  0.251  0.627-  87 2.34  84 2.34  40 2.36  43 2.37
 178  0.915  0.375  0.500-  84 2.34  89 2.34   8 2.37   5 2.37
 179  0.746  0.254  0.379-  88 2.33  89 2.34  40 2.35  41 2.37
 180  0.916  0.125  0.500-  59 2.34  88 2.34   8 2.36  43 2.37
 181  0.917  0.877  0.752-  93 2.34  58 2.35  42 2.36  13 2.36
 182  0.749  0.000  0.625-  90 2.34  91 2.34  42 2.37  43 2.37
 183  0.918  0.125  0.752-  55 2.34  58 2.35  43 2.37  38 2.37
 184  0.750  0.999  0.874-  93 2.34  90 2.34  33 2.37  38 2.37
 185  0.751  0.752  0.127-  80 2.34  83 2.34  47 2.37  44 2.37
 186  0.915  0.874  0.000-  80 2.33  93 2.34   1 2.35  12 2.37
 187  0.751  0.750  0.875-  93 2.34  92 2.34  44 2.37  45 2.37
 188  0.917  0.623  0.999-  92 2.34  63 2.34  12 2.37  47 2.37
 189  0.915  0.374  0.251-   9 2.34  62 2.34  89 2.35  46 2.36
 190  0.749  0.500  0.125-  94 2.34  95 2.34  46 2.37  47 2.37
 191  0.919  0.625  0.250-  51 2.33  62 2.34  34 2.37  47 2.37
 192  0.750  0.500  0.374-  94 2.34  89 2.34  34 2.37  37 2.37
 
  LATTYP: Found a base centered orthorhombic cell.
 ALAT       =    21.4900005599
 B/A-ratio  =     1.0177756885
 C/A-ratio  =     0.7633317623
  
  Lattice vectors:
  
 A1 = (   0.0000000000,  15.3313770000,   0.0000000000)
 A2 = (   0.0000000000,  -0.2701040000, -15.3289980000)
 A3 = ( -16.4040000000,   0.0000000000,   0.0000000000)


Analysis of symmetry for initial positions (statically):
=====================================================================
 Subroutine PRICEL returns:
 Original cell was already a primitive cell.
 

 Routine SETGRP: Setting up the symmetry group for a 
 base centered orthorhombic supercell.


 Subroutine GETGRP returns: Found  1 space group operations
 (whereof  1 operations were pure point group operations)
 out of a pool of  8 trial point group operations.


The static configuration has the point symmetry C_1 .


Analysis of symmetry for dynamics (positions and initial velocities):
=====================================================================
 Subroutine PRICEL returns:
 Original cell was already a primitive cell.
 

 Routine SETGRP: Setting up the symmetry group for a 
 base centered orthorhombic supercell.


 Subroutine GETGRP returns: Found  1 space group operations
 (whereof  1 operations were pure point group operations)
 out of a pool of  8 trial point group operations.


The dynamic configuration has the point symmetry C_1 .


Analysis of structural, dynamic, and magnetic symmetry:
=====================================================================
 Subroutine PRICEL returns:
 Original cell was already a primitive cell.
 

 Routine SETGRP: Setting up the symmetry group for a 
 base centered orthorhombic supercell.


 Subroutine GETGRP returns: Found  1 space group operations
 (whereof  1 operations were pure point group operations)
 out of a pool of  8 trial point group operations.


The magnetic configuration has the point symmetry C_1 .


 Subroutine INISYM returns: Found  1 space group operations
 (whereof  1 operations are pure point group operations),
 and found     1 'primitive' translations

 
 
 KPOINTS: Generate by dasp                        

Automatic generation of k-mesh.
Space group operators:
 irot       det(A)        alpha          n_x          n_y          n_z        tau_x        tau_y        tau_z
    1     1.000000     0.000000     1.000000     0.000000     0.000000     0.000000     0.000000     0.000000
 
 Subroutine IBZKPT returns following result:
 ===========================================
 
 Found      1 irreducible k-points:
 
 Following reciprocal coordinates:
            Coordinates               Weight
  0.000000  0.000000  0.000000      1.000000
 
 Following cartesian coordinates:
            Coordinates               Weight
  0.000000  0.000000  0.000000      1.000000
 
 
 Subroutine IBZKPT_HF returns following result:
 ==============================================
 
 Found      1 k-points in 1st BZ
 the following      1 k-points will be used (e.g. in the exchange kernel)
 Following reciprocal coordinates:   # in IRBZ
  0.000000  0.000000  0.000000    1.00000000   1 t-inv F


--------------------------------------------------------------------------------------------------------




 Dimension of arrays:
   k-points           NKPTS =      1   k-points in BZ     NKDIM =      1   number of bands    NBANDS=   1136
   number of dos      NEDOS =    301   number of ions     NIONS =    192
   non local maximal  LDIM  =      6   non local SUM 2l+1 LMDIM =     18
   total plane-waves  NPLWV = ******
   max r-space proj   IRMAX =      1   max aug-charges    IRDMAX=   9247
   dimension x,y,z NGX =   108 NGY =   98 NGZ =   98
   dimension x,y,z NGXF=   216 NGYF=  196 NGZF=  196
   support grid    NGXF=   216 NGYF=  196 NGZF=  196
   ions per type =              47  49  96
   NGX,Y,Z   is equivalent  to a cutoff of  10.95, 10.63, 10.63 a.u.
   NGXF,Y,Z  is equivalent  to a cutoff of  21.89, 21.25, 21.25 a.u.

 SYSTEM =  unknown system                          
 POSCAR =  Zn47Ge49P96                             

 Startparameter for this run:
   NWRITE =      2    write-flag & timer
   PREC   = accura    normal or accurate (medium, high low for compatibility)
   ISTART =      1    job   : 0-new  1-cont  2-samecut
   ICHARG =      1    charge: 1-file 2-atom 10-const
   ISPIN  =      2    spin polarized calculation?
   LNONCOLLINEAR =      F non collinear calculations
   LSORBIT =      F    spin-orbit coupling
   INIWAV =      1    electr: 0-lowe 1-rand  2-diag
   LASPH  =      F    aspherical Exc in radial PAW
   METAGGA=      F    non-selfconsistent MetaGGA calc.

 Electronic Relaxation 1
   ENCUT  =  373.0 eV  27.41 Ry    5.24 a.u.  25.83 24.14 24.14*2*pi/ulx,y,z
   ENINI  =  373.0     initial cutoff
   ENAUG  =  575.9 eV  augmentation charge cutoff
   NELM   =    200;   NELMIN=  2; NELMDL=  0     # of ELM steps 
   EDIFF  = 0.1E-04   stopping-criterion for ELM
   LREAL  =      F    real-space projection
   NLSPLINE    = F    spline interpolate recip. space projectors
   LCOMPAT=      F    compatible to vasp.4.4
   GGA_COMPAT  = T    GGA compatible to vasp.4.4-vasp.4.6
   LMAXPAW     = -100 max onsite density
   LMAXMIX     =    2 max onsite mixed and CHGCAR
   VOSKOWN=      0    Vosko Wilk Nusair interpolation
   ROPT   =    0.00000   0.00000   0.00000
 Ionic relaxation
   EDIFFG = -.1E-01   stopping-criterion for IOM
   NSW    =      0    number of steps for IOM
   NBLOCK =      1;   KBLOCK =      1    inner block; outer block 
   IBRION =     -1    ionic relax: 0-MD 1-quasi-New 2-CG
   NFREE  =      0    steps in history (QN), initial steepest desc. (CG)
   ISIF   =      0    stress and relaxation
   IWAVPR =     10    prediction:  0-non 1-charg 2-wave 3-comb
   ISYM   =      3    0-nonsym 1-usesym 2-fastsym
   LCORR  =      T    Harris-Foulkes like correction to forces

   POTIM  = 0.5000    time-step for ionic-motion
   TEIN   =    0.0    initial temperature
   TEBEG  =    0.0;   TEEND  =   0.0 temperature during run
   SMASS  =  -3.00    Nose mass-parameter (am)
   estimated Nose-frequenzy (Omega)   =  0.10E-29 period in steps =****** mass=  -0.615E-26a.u.
   SCALEE = 1.0000    scale energy and forces
   NPACO  =    256;   APACO  = 16.0  distance and # of slots for P.C.
   PSTRESS=    0.0 pullay stress

  Mass of Ions in am
   POMASS =  65.39 72.61 30.97
  Ionic Valenz
   ZVAL   =  12.00 14.00  5.00
  Atomic Wigner-Seitz radii
   RWIGS  =  -1.00 -1.00 -1.00
  virtual crystal weights 
   VCA    =   1.00  1.00  1.00
   NELECT =    1730.0000    total number of electrons
   NUPDOWN=      -1.0000    fix difference up-down

 DOS related values:
   EMIN   =  10.00;   EMAX   =-10.00  energy-range for DOS
   EFERMI =   0.00
   ISMEAR =     0;   SIGMA  =   0.05  broadening in eV -4-tet -1-fermi 0-gaus

 Electronic relaxation 2 (details)
   IALGO  =     53    algorithm
   LDIAG  =      T    sub-space diagonalisation (order eigenvalues)
   LSUBROT=      F    optimize rotation matrix (better conditioning)
   TURBO    =      0    0=normal 1=particle mesh
   IRESTART =      0    0=no restart 2=restart with 2 vectors
   NREBOOT  =      0    no. of reboots
   NMIN     =      0    reboot dimension
   EREF     =   0.00    reference energy to select bands
   IMIX   =      4    mixing-type and parameters
     AMIX     =   0.40;   BMIX     =  1.00
     AMIX_MAG =   1.60;   BMIX_MAG =  1.00
     AMIN     =   0.10
     WC   =   100.;   INIMIX=   1;  MIXPRE=   1;  MAXMIX= -45

 Intra band minimization:
   WEIMIN = 0.0000     energy-eigenvalue tresh-hold
   EBREAK =  0.22E-08  absolut break condition
   DEPER  =   0.30     relativ break condition  

   TIME   =   0.40     timestep for ELM

  volume/ion in A,a.u.               =      20.08       135.50
  Fermi-wavevector in a.u.,A,eV,Ry     =   1.253358  2.368504 21.373494  1.570907
  Thomas-Fermi vector in A             =   2.387215
 
 Write flags
   LWAVE        =      T    write WAVECAR
   LDOWNSAMPLE  =      F    k-point downsampling of WAVECAR
   LCHARG       =      T    write CHGCAR
   LVTOT        =      F    write LOCPOT, total local potential
   LVHAR        =      T    write LOCPOT, Hartree potential only
   LELF         =      F    write electronic localiz. function (ELF)
   LORBIT       =     10    0 simple, 1 ext, 2 COOP (PROOUT), +10 PAW based schemes


 Dipole corrections
   LMONO  =      F    monopole corrections only (constant potential shift)
   LDIPOL =      F    correct potential (dipole corrections)
   IDIPOL =      0    1-x, 2-y, 3-z, 4-all directions 
   EPSILON=  1.0000000 bulk dielectric constant

 Core level calculations are selected ICORELEVEL =  1
 Exchange correlation treatment:
   GGA     =    PE    GGA type
   LEXCH   =     8    internal setting for exchange type
   VOSKOWN=      0    Vosko Wilk Nusair interpolation
   EXXOEP  =     0    0=HF, 1=EXX-LHF (local Hartree Fock) 2=EXX OEP
   LHFCALC =     T    Hartree Fock is set to
   LSYMGRAD=     F    symmetrize gradient (conserves proper symmetry)
   PRECFOCK=fast      Normal, Fast or Accurate (Low or Medium for compatibility)
   LRHFCALC=     F    long range Hartree Fock
   LRSCOR  =     F    long range correlation only (use DFT for short range part)
   LTHOMAS =     F    Thomas Fermi screening in HF
   LMODELHF=     F    short range full HF, long range fraction AEXX
   ENCUT4O =  -1.0   cutoff for four orbital integrals eV
   LMAXFOCK=     4    L truncation for augmentation on plane wave grid
   LMAXFOCKAE=  -1    L truncation for all-electron charge restoration on plane wave grid
   NMAXFOCKAE=   1    number of basis functions for all-electron charge restoration
   LFOCKAEDFT=     F  apply the AE augmentation even for DFT
   NKREDX  =     1    reduce k-point grid by
   NKREDY  =     1    reduce k-point grid by
   NKREDZ  =     1    reduce k-point grid by
   SHIFTRED=     F    shift reduced grid of Gamma
   HFKIDENT=     F    idential grid for each k-point
   ODDONLY =     F    use only odd q-grid points
   EVENONLY=     F    use only even q-grid points
   HFALPHA =   -1.0000 decay constant for conv. correction
   MCALPHA =    0.0000 extent of test-charge in conv. correction in multipole expansion
   AEXX    =    0.2700 exact exchange contribution
   HFSCREEN=    0.2000 screening length (either q_TF or 0.3 A-1)
   HFSCREENC=   0.2000 screening length for correlation (either q_TF or 0.3 A-1)
   HFRCUT  =    0.0000 spherical cutoff for potential kernel
   ALDAX   =    0.7300 LDA exchange part
   AGGAX   =    0.7300 GGA exchange part
   ALDAC   =    1.0000 LDA correlation
   AGGAC   =    1.0000 GGA correlation
   ENCUTFOCK=  -1.0 apply spherical cutoff to Coloumb kernel
   NBANDSGWLOW=     1    first orbital included in HF term
   NBLOCK_FOCK=    64    blocking factor in FOCK_ACC
 Linear response parameters
   LEPSILON=     F    determine dielectric tensor
   LRPA    =     F    only Hartree local field effects (RPA)
   LNABLA  =     F    use nabla operator in PAW spheres
   LVEL    =     F    velocity operator in full k-point grid
   LINTERFAST=   F  fast interpolation
   KINTER  =     0    interpolate to denser k-point grid
   CSHIFT  =0.1000    complex shift for real part using Kramers Kronig
   OMEGAMAX=  -1.0    maximum frequency
   DEG_THRESHOLD= 0.2000000E-02 threshold for treating states as degnerate
   RTIME   =   -0.100 relaxation time in fs
  (WPLASMAI=    0.000 imaginary part of plasma frequency in eV, 0.658/RTIME)
   DFIELD  = 0.0000000 0.0000000 0.0000000 field for delta impulse in time
 
 Orbital magnetization related:
   ORBITALMAG=     F  switch on orbital magnetization
   LCHIMAG   =     F  perturbation theory with respect to B field
   DQ        =  0.001000  dq finite difference perturbation B field
   LLRAUG    =     F  two centre corrections for induced B field



--------------------------------------------------------------------------------------------------------


 Static calculation
 charge density and potential will be updated during run
 spin polarized calculation
 Conjugate gradient for all bands (Freysoldt, et al. PRB 79, 241103 (2009))
 perform sub-space diagonalisation
    before iterative eigenvector-optimisation
 modified Broyden-mixing scheme, WC =      100.0
 initial mixing is a Kerker type mixing with AMIX =  0.4000 and BMIX =      1.0000
 Hartree-type preconditioning will be used
 using additional bands          271
 reciprocal scheme for non local part
 use partial core corrections
 no Harris-corrections to forces 
 use gradient corrections 
 use of overlap-Matrix (Vanderbilt PP)
 Gauss-broadening in eV      SIGMA  =   0.05


--------------------------------------------------------------------------------------------------------


  energy-cutoff  :      373.00
  volume of cell :     3855.18
      direct lattice vectors                 reciprocal lattice vectors
    16.404000000  0.000000000  0.000000000     0.060960741  0.000000000  0.000000000
     0.000000000 15.331377000  0.000000000     0.000000000  0.065225713 -0.001149307
     0.000000000  0.270104000 15.328998000     0.000000000  0.000000000  0.065235836

  length of vectors
    16.404000000 15.331377000 15.331377494     0.060960741  0.065235838  0.065235836


 
 old parameters found on file WAVECAR:
  energy-cutoff  :      373.00
  volume of cell :     3855.18
      direct lattice vectors                 reciprocal lattice vectors
    16.404000000  0.000000000  0.000000000     0.060960741  0.000000000  0.000000000
     0.000000000 15.331377000  0.000000000     0.000000000  0.065225713 -0.001149307
     0.000000000  0.270104000 15.328998000     0.000000000  0.000000000  0.065235836

  length of vectors

 
 k-points in units of 2pi/SCALE and weight: Generate by dasp                        
   0.00000000  0.00000000  0.00000000       1.000
 
 k-points in reciprocal lattice and weights: Generate by dasp                        
   0.00000000  0.00000000  0.00000000       1.000
 
 position of ions in fractional coordinates (direct lattice) 
   0.99824922  0.99937569  0.99747611
   0.16672645  0.62391841  0.37512320
   0.16629710  0.87451177  0.37252604
   0.99999903  0.49969077  0.75030829
   0.00013716  0.50019492  0.49952020
   0.16706887  0.12497481  0.87530573
   0.16677413  0.37513590  0.87531718
   0.99981634  0.24992691  0.50089004
   0.00174385  0.25251240  0.25062779
   0.16634238  0.87532424  0.62420542
   0.16608139  0.12491291  0.62485580
   0.00018262  0.74911277  0.00006995
   0.99986099  0.75048035  0.74980145
   0.16684241  0.37315109  0.12537514
   0.16638169  0.62310091  0.12457287
   0.33425176  0.99897603  0.25010332
   0.33426053  0.99930437  0.99908280
   0.50022633  0.62446082  0.37512631
   0.49999949  0.87488625  0.37511250
   0.33260743  0.50037400  0.75060087
   0.33313918  0.50029427  0.50001893
   0.50015905  0.12486525  0.87480531
   0.49999910  0.37595695  0.87404132
   0.33276015  0.24962115  0.50014626
   0.33348673  0.24986256  0.24965304
   0.49977221  0.87487201  0.62553831
   0.49940668  0.12547592  0.62510698
   0.33634827  0.74603379  0.99826202
   0.33315683  0.75040281  0.74939380
   0.49983880  0.37519400  0.12513206
   0.50059154  0.62489114  0.12452322
   0.66574626  0.99989629  0.25102209
   0.66651053  0.00034549  0.00013485
   0.83365664  0.62579165  0.37467536
   0.83370079  0.87747305  0.37548540
   0.66739124  0.49939800  0.74962615
   0.66684127  0.50060437  0.49959703
   0.83315482  0.12462686  0.87684471
   0.83322488  0.37468364  0.87486391
   0.66365047  0.25173694  0.50396234
   0.66573687  0.25091754  0.25069232
   0.83327104  0.87487545  0.62607805
   0.83361540  0.12542537  0.62689785
   0.66723849  0.74985261  0.00037735
   0.66685880  0.74997957  0.74970435
   0.83293043  0.37469366  0.12502667
   0.83391812  0.62514349  0.12508527
   0.17227645  0.87065248  0.12059217
   0.16896433  0.12360350  0.12344030
   0.99999879  0.75011452  0.49988361
   0.00168690  0.74870593  0.24977967
   0.16643805  0.37528049  0.62524169
   0.16637731  0.62498657  0.62507515
   0.99999868  0.24958276  0.00041931
   0.99987534  0.24973010  0.75092099
   0.16670731  0.12538571  0.37404248
   0.16685919  0.37511191  0.37550844
   0.00135948  0.00013509  0.75121978
   0.99831076  0.00021793  0.50129173
   0.16639300  0.62517780  0.87496947
   0.16758585  0.87443803  0.87509232
   0.99864044  0.49877635  0.24986381
   0.00012354  0.49908058  0.00026899
   0.50011712  0.87491287  0.12485125
   0.49999907  0.12489362  0.12510519
   0.33301011  0.75022508  0.49947875
   0.33391899  0.74885539  0.25000304
   0.49878733  0.37612782  0.62543097
   0.49999923  0.62505949  0.62493896
   0.33442434  0.25001661  0.99927035
   0.33319682  0.24996584  0.75016034
   0.49988138  0.12514844  0.37508541
   0.49955352  0.37499307  0.37534829
   0.33315045  0.00012334  0.74966143
   0.33302230  0.99959363  0.49990280
   0.50121073  0.62456644  0.87387116
   0.50044440  0.87464894  0.87500673
   0.33322109  0.49978908  0.24977208
   0.33326720  0.49929788  0.00001092
   0.83329060  0.87595834  0.12461038
   0.83103377  0.12655801  0.12639581
   0.66698921  0.75051915  0.49977314
   0.66697770  0.75009605  0.25040397
   0.83360455  0.37502818  0.62482230
   0.83362136  0.62492300  0.62501295
   0.66557423  0.25072959  0.99998170
   0.66672955  0.24998831  0.75070027
   0.82772181  0.12940363  0.37934603
   0.83241202  0.37490585  0.37556236
   0.66677637  0.00022622  0.75020919
   0.66607791  0.99999515  0.50114347
   0.83356127  0.62475899  0.87471863
   0.83313849  0.87449208  0.87488327
   0.66684841  0.50033794  0.24987545
   0.66680252  0.49983957  0.00003404
   0.00000472  0.00703921  0.24295206
   0.08208032  0.00095361  0.37765688
   0.24910392  0.12386865  0.24958999
   0.09287223  0.99526246  0.11337485
   0.25090350  0.87298446  0.24754583
   0.24976617  0.62616612  0.50118789
   0.08237651  0.74949025  0.37516317
   0.25047010  0.87528756  0.49857823
   0.08323635  0.74908473  0.62372604
   0.08332506  0.50097419  0.87626561
   0.24817468  0.62545933  0.75008807
   0.08440723  0.50010432  0.62499377
   0.24982349  0.37385930  0.74911808
   0.25146660  0.12573143  0.00020387
   0.08212522  0.24988692  0.87564678
   0.25172725  0.37417713  0.00025414
   0.08375987  0.24640442  0.12421356
   0.08319022  0.25125015  0.62681074
   0.24858671  0.37498761  0.50042827
   0.08489962  0.24995866  0.37585609
   0.24928063  0.12328090  0.49845232
   0.24968456  0.87638405  0.75025490
   0.08130817  0.99998017  0.62502081
   0.25117362  0.12504895  0.74979833
   0.08453741  0.99892364  0.87560785
   0.08428551  0.75020907  0.12533463
   0.25392505  0.87123152  0.99636837
   0.08467137  0.75017256  0.87493916
   0.25004357  0.62301148  0.99872876
   0.25000216  0.37563304  0.25146932
   0.08172740  0.49796014  0.12530882
   0.25116970  0.62451564  0.24980349
   0.08312017  0.49839392  0.37345683
   0.41681236  0.00100909  0.37638839
   0.58177873  0.12526724  0.25017284
   0.41821965  0.99982520  0.12473249
   0.58318663  0.87361026  0.24898964
   0.58351277  0.62654276  0.50101163
   0.41554171  0.74953792  0.37496270
   0.58445631  0.87503464  0.50046113
   0.41648559  0.74898668  0.62345564
   0.41658563  0.50146946  0.87600471
   0.58295319  0.62437794  0.74902765
   0.41704504  0.50097121  0.62562030
   0.58341195  0.37399481  0.74852842
   0.58302756  0.12614446  0.00107266
   0.41611217  0.25036120  0.87429743
   0.58388679  0.37570220  0.99963679
   0.41697116  0.24892612  0.12385461
   0.41613221  0.25149099  0.62618113
   0.58050832  0.37655716  0.50092683
   0.41773095  0.24981467  0.37512303
   0.58276779  0.12396874  0.49929967
   0.58367857  0.87614675  0.75118955
   0.41500135  0.00006845  0.62482384
   0.58480788  0.12509456  0.74985047
   0.41724639  0.99870904  0.87308042
   0.41723039  0.75069894  0.12603054
   0.58226701  0.87487541  0.00018486
   0.41948954  0.74907089  0.87344171
   0.58386597  0.62381775  0.99850816
   0.58275119  0.37691993  0.25128838
   0.41518927  0.50014876  0.12490367
   0.58499740  0.62517584  0.24992978
   0.41631933  0.49881038  0.37385140
   0.74909312  0.00245188  0.37701488
   0.90712960  0.13660499  0.25473681
   0.75089286  0.00040936  0.12612881
   0.91791719  0.87234228  0.24904329
   0.91676236  0.62627110  0.50091477
   0.74952932  0.75141950  0.37471043
   0.91762125  0.87483464  0.50050680
   0.75023205  0.74881008  0.62383238
   0.75017566  0.50088250  0.87614043
   0.91559178  0.62500576  0.74989423
   0.75182358  0.49990998  0.62454057
   0.91667341  0.37373296  0.74902536
   0.91623590  0.12578953  0.00359277
   0.74827039  0.24974714  0.87582033
   0.91787280  0.37435504  0.00011351
   0.74853200  0.24979525  0.12426706
   0.74995335  0.25126950  0.62698704
   0.91532673  0.37505748  0.49982872
   0.74607418  0.25362969  0.37876475
   0.91571248  0.12466247  0.49979011
   0.91687822  0.87654347  0.75160217
   0.74882715  0.00019480  0.62548303
   0.91827178  0.12469043  0.75203723
   0.74999572  0.99853147  0.87436468
   0.75071916  0.75154707  0.12671663
   0.91509771  0.87414505  0.00003673
   0.75141187  0.74957178  0.87501054
   0.91680942  0.62319122  0.99874858
   0.91546127  0.37438836  0.25107753
   0.74882560  0.50020111  0.12495077
   0.91869066  0.62497616  0.25001875
   0.75031351  0.49974342  0.37361579
 
 position of ions in cartesian coordinates  (Angst):
  16.37528020 15.59122776 15.29030925
   2.73498076  9.66685066  5.75026282
   2.72793770 13.50809036  5.71045092
  16.40398407  7.86360879 11.50147424
   0.00224996  7.80359926  7.65714410
   2.74059774  2.15245956 13.41755983
   2.73576287  5.98777658 13.41773529
  16.40098729  3.96701604  7.67814237
   0.02860606  3.93905843  3.84187293
   2.72868035 13.58852623  9.56844366
   2.72439905  2.08386296  9.57841338
   0.00299562 11.48494922  0.00107228
  16.40171969 11.70842160 11.49370497
   2.73688289  5.75478442  1.92187525
   2.72932520  9.58664260  1.90957721
   5.48306586 15.38323205  3.83383335
   5.48320971 15.59056832 15.31493821
   8.20571266  9.67516738  5.75031046
   8.20199171 13.51453027  5.75009874
   5.45609235  7.87416271 11.50595927
   5.46481515  7.80525723  7.66478925
   8.20460899  2.15064467 13.40988892
   8.20198529  6.00001981 13.39817763
   5.45859758  3.96212753  7.66674100
   5.47051625  3.89816932  3.82693100
   8.19826326 13.58195307  9.58887550
   8.19226722  2.09256260  9.58226369
   5.51745701 11.70735979 15.30235656
   5.46510471 11.70712259 11.48745613
   8.19935560  5.78603932  1.91814906
   8.21170367  9.61407593  1.90881625
  10.92090167 15.39758905  3.84791714
  10.93343881  0.00533330  0.00206715
  13.67530351  9.69544906  5.74339781
  13.67602774 13.55429019  5.75581500
  10.94788588  7.85893606 11.49101779
  10.93886424  7.80989742  7.65832191
  13.66707162  2.14754070 13.44115077
  13.66822091  5.98072040 13.41078720
  10.88652226  3.99559620  7.72523776
  10.92074758  3.91462444  3.84286200
  13.66897808 13.58215150  9.59714912
  13.67462706  2.09227121  9.60971595
  10.94538019 11.49637493  0.00578434
  10.93915180 11.70071768 11.49221644
  13.66339074  5.77833990  1.91653364
  13.67959277  9.61809652  1.91743189
   2.82602296 13.38087384  1.84855708
   2.77169088  1.92835361  1.89221618
  16.40398012 11.63530906  7.66271481
   0.02767191 11.54615929  3.82887211
   2.73024984  5.92244697  9.58432867
   2.72925339  9.75073999  9.58177574
  16.40397834  3.82656068  0.00642767
  16.40195506  4.03153311 11.51086628
   2.73466674  2.02336590  5.73369644
   2.73715821  5.85240847  5.75616816
   0.02230085  0.20497852 11.51544648
  16.37628979  0.13874208  7.68429999
   2.72951080  9.82116930 13.41240521
   2.74907825 13.64270508 13.41428847
  16.38169776  7.71441745  3.83016189
   0.00202659  7.65166526  0.00412328
   8.20392126 13.44734184  1.91384454
   8.20198476  1.94858254  1.91773725
   5.46269786 11.63689482  7.65650883
   5.47760711 11.54851113  3.83229606
   8.18210736  5.93548878  9.58723016
   8.20198733  9.75182121  9.57968803
   5.48589693  4.10300579 15.31781316
   5.46576066  4.03494183 11.49920633
   8.20005413  2.02000999  5.74968346
   8.19467595  5.85054327  5.75371322
   5.46500006  0.20437757 11.49155860
   5.46289781 15.46017248  7.66300904
   8.22186082  9.81149971 13.39556932
   8.20929002 13.64591544 13.41297639
   5.46615874  7.72991924  3.82875570
   5.46691518  7.65492693  0.00016737
  13.66929892 13.46330527  1.91015223
  13.63227797  1.97444857  1.93752113
  10.94129094 11.64148278  7.66102139
  10.94110219 11.56764039  3.83844193
  13.67444911  5.91846542  9.57789984
  13.67472485  9.74974854  9.58082220
  10.91807968  4.11412900 15.32871751
  10.93703150  4.03543210 11.50748295
  13.57794857  2.08639865  5.81499460
  13.65488679  5.84926376  5.75699470
  10.93779954  0.20610277 11.49995511
  10.92634209 15.46666351  7.68202719
  13.67373910  9.81468067 13.40856011
  13.66680379 13.64347728 13.41108391
  10.93898124  7.73836194  3.83034035
  10.93822859  7.66323805  0.00052185
   0.00007738  0.17354311  3.72421166
   1.34644550  0.11662686  5.78910162
   4.08630065  1.96649228  3.82596444
   1.52347604 15.28936702  1.73792280
   4.11582105 13.45091696  3.79462951
   4.09716423  9.73536171  7.68270813
   1.35130431 11.59205058  5.75087542
   4.10871145 13.55403150  7.64270468
   1.36540904 11.65297133  9.56109525
   1.36686428  7.91730708 13.43227381
   4.07105743  9.79175452 11.49809847
   1.38461618  7.83610122  9.58052830
   4.09810454  5.93411769 11.48322960
   4.12505815  1.92769109  0.00312514
   1.34718211  4.06762629 13.42278776
   4.12933387  5.73671928  0.00389574
   1.37399691  3.81126969  1.90406943
   1.36465229  4.02131483  9.60838055
   4.07781643  5.88424408  7.67106392
   1.39269334  3.93373068  5.76149725
   4.08919940  2.02469989  7.64077461
   4.09582550 13.63882115 11.50065581
   1.33377917 15.49989366  9.58094278
   4.12025202  2.11969605 11.49365716
   1.38675174 15.55138007 13.42219093
   1.38261956 11.53559142  1.92125437
   4.16538656 13.62630202 15.27332876
   1.38894913 11.73750296 13.41194069
   4.10171473  9.82138458 15.30951109
   4.10103549  5.82689466  3.85477267
   1.34065634  7.66826110  1.92085872
   4.12018771  9.64215764  3.82923723
   1.36350324  7.74193722  5.72471896
   6.83739001  0.11713469  5.76965691
   9.54349833  1.98809198  3.83489891
   6.86047508 15.36238787  1.91202412
   9.56659343 13.46090138  3.81676172
   9.57194350  9.74108852  7.68000627
   6.81654628 11.59272735  5.74780251
   9.58742128 13.55066252  7.67156767
   6.83202954 11.65139508  9.55695025
   6.83367071  7.92482969 13.42827445
   9.56276418  9.77488903 11.48184333
   6.84120683  7.84956100  9.59013233
   9.57028959  5.93603591 11.47419070
   9.56398412  1.93425804  0.01644278
   6.82590401  4.07453324 13.40210358
   9.57807897  6.03003789 15.32343031
   6.83999492  3.84983377  1.89856715
   6.82623274  4.02483723  9.59872926
   9.52265841  5.90844219  7.67870645
   6.85245851  3.93132508  5.75026024
   9.55972278  2.03547426  7.65376366
   9.57466328 13.63543545 11.51498312
   6.80768214  0.16981681  9.57792335
   9.59318845  2.12040940 11.49445630
   6.84450971 15.54740738 13.38344809
   6.84424734 11.54328975  1.93192195
   9.55150797 13.41309470  0.00283366
   6.88130642 11.72020825 13.38898622
   9.57773741  9.83368620 15.30612966
   9.55945044  5.84657550  3.85199901
   6.81076473  7.70170611  1.91464816
   9.59629727  9.65231350  3.83117305
   6.82930237  7.74842868  5.73076735
  12.28812362  0.13942397  5.77926034
  14.88055391  2.16314810  3.90486005
  12.31764649  0.04034389  1.93342829
  15.05751366 13.44147596  3.81758402
  15.03856968  9.73689742  7.67852146
  12.29527896 11.62150647  5.74393537
  15.05265904 13.54760857  7.67226767
  12.30680651 11.64878920  9.56272537
  12.30588148  7.91586744 13.43035490
  15.01936752  9.78474829 11.49512712
  12.33291403  7.83299922  9.57358107
  15.03711054  5.93215563 11.48180820
  15.02993364  1.92949720  0.05507353
  12.27462753  4.06553015 13.42544809
  15.05678541  5.73940896  0.00174004
  12.27891890  3.86327023  1.90488951
  12.30223480  4.02165912  9.61108305
  15.01501973  5.88515341  7.66187339
  12.23860078  3.99079829  5.80608406
  15.02134755  2.04624258  7.66128165
  15.04047034 13.64162911 11.52130818
  12.28376057  0.17193199  9.58802808
  15.06333032  2.11480427 11.52797716
  12.30292983 15.54503183 13.40313442
  12.31479713 11.55647806  1.94243904
  15.01126289 13.40185722  0.00056298
  12.32616037 11.72831137 13.41303478
  15.03934165  9.82414545 15.30981506
  15.01722671  5.80770610  3.84876698
  12.28373508  7.70252147  1.91537006
  15.07020161  9.64927626  3.83253687
  12.30814282  7.76266994  5.72715575
 


--------------------------------------------------------------------------------------------------------


 use parallel FFT for orbitals z direction half grid
 k-point  1 :   0.0000 0.0000 0.0000  plane waves:   31525

 maximum and minimum number of plane-waves per node :      3949     3935

 maximum number of plane-waves:     31525
 maximum index in each direction: 
   IXMAX=   25   IYMAX=   24   IZMAX=   24
   IXMIN=  -25   IYMIN=  -24   IZMIN=    0


 parallel 3D FFT for wavefunctions:
    minimum data exchange during FFTs selected (reduces bandwidth)
 parallel 3D FFT for charge:
    minimum data exchange during FFTs selected (reduces bandwidth)


 FFT grid for exact exchange (Hartree Fock) 
  NGX = 54; NGY = 50; NGZ = 50

 use parallel FFT for orbitals z direction half grid
 
 Radii for the augmentation spheres in the non-local exchange
 for species   1 augmentation radius   1.230 (default was   0.952)
       energy cutoff for augmentation   1492.0
 for species   2 augmentation radius   1.227 (default was   0.991)
       energy cutoff for augmentation   1492.0
 for species   3 augmentation radius   1.022 (default was   0.959)
       energy cutoff for augmentation   1492.0

 real space projection operators:
  total allocation   :       6055.49 KBytes
  max/ min on nodes  :        936.52        559.98

 Maximum index for augmentation-charges in exchange           52
  SETUP_FOCK is finished

 total amount of memory used by VASP MPI-rank0    96914. kBytes
=======================================================================

   base      :      30000. kBytes
   nonl-proj :      13847. kBytes
   fftplans  :       5975. kBytes
   grid      :      17618. kBytes
   one-center:        373. kBytes
   HF        :        194. kBytes
   nonlr-proj:        881. kBytes
   wavefun   :      28026. kBytes
 
     INWAV:  cpu time    4.0562: real time    5.0229
 Broyden mixing: mesh for mixing (old mesh)
   NGX = 51   NGY = 49   NGZ = 49
  (NGX  =216   NGY  =196   NGZ  =196)
  gives a total of 122451 points

 initial charge density was supplied:
 number of electron    1730.0000272 magnetization      -0.0000000
 charge density for first step will be calculated from the start-wavefunctions


--------------------------------------------------------------------------------------------------------


 Maximum index for augmentation-charges          505 (set IRDMAX)


--------------------------------------------------------------------------------------------------------


 initial charge from wavefunction
 First call to EWALD:  gamma=   0.113
 Maximum number of real-space cells 3x 3x 3
 Maximum number of reciprocal cells 3x 3x 3

    FEWALD:  cpu time    0.0064: real time    0.0064


--------------------------------------- Iteration      1(   1)  ---------------------------------------


    POTLOK:  cpu time    0.5654: real time    0.5667
    SETDIJ:  cpu time    0.2018: real time    0.2022
    TRIAL :  cpu time  118.5756: real time  139.8413
    CORREC:  cpu time    0.0006: real time    0.0007
    CHARGE:  cpu time    0.2895: real time    0.3183
    --------------------------------------------
      LOOP:  cpu time  119.6401: real time  140.9613

 eigenvalue-minimisations  :     0
 total energy-change (2. order) :-0.1127145E+04  (-0.1486745E+02)
 number of electron    1730.0000274 magnetization      -0.0000000
 augmentation part      753.2431950 magnetization      -0.0001002

 Free energy of the ion-electron system (eV)
  ---------------------------------------------------
  alpha Z        PSCENC =      6939.29392558
  Ewald energy   TEWEN  =   -126938.26610891
  -Hartree energ DENC   =    -71963.17008730
  -exchange      EXHF   =      4588.14473182
  -V(xc)+E(xc)   XCENC  =      4877.91275594
  PAW double counting   =    152921.15395693  -180032.81494683
  entropy T*S    EENTRO =        -0.00000000
  eigenvalues    EBANDS =    -17392.21813549
  atomic energy  EATOM  =    225872.81875723
  ---------------------------------------------------
  free energy    TOTEN  =     -1127.14515102 eV

  energy without entropy =    -1127.14515102  energy(sigma->0) =    -1127.14515102
  exchange ACFDT corr.  =        -0.00000000  see jH, gK, PRB 81, 115126


--------------------------------------------------------------------------------------------------------




--------------------------------------- Iteration      1(   2)  ---------------------------------------


    POTLOK:  cpu time    0.5418: real time    0.5431
    SETDIJ:  cpu time    0.2023: real time    0.2026
    TRIAL :  cpu time  130.6878: real time  143.1957
    CORREC:  cpu time    0.0006: real time    0.0008
    CHARGE:  cpu time    0.3057: real time    0.3134
    --------------------------------------------
      LOOP:  cpu time  131.7399: real time  144.2732

 eigenvalue-minimisations  :     0
 total energy-change (2. order) :-0.4720676E+01  (-0.7740303E+01)
 number of electron    1730.0000273 magnetization       0.0000000
 augmentation part      752.8219642 magnetization      -0.0001088

 Free energy of the ion-electron system (eV)
  ---------------------------------------------------
  alpha Z        PSCENC =      6939.29392558
  Ewald energy   TEWEN  =   -126938.26610891
  -Hartree energ DENC   =    -72563.95614801
  -exchange      EXHF   =      4605.72130007
  -V(xc)+E(xc)   XCENC  =      4897.60089897
  PAW double counting   =    153798.01374096  -181449.93776302
  entropy T*S    EENTRO =        -0.00000000
  eigenvalues    EBANDS =    -16293.15443018
  atomic energy  EATOM  =    225872.81875723
  ---------------------------------------------------
  free energy    TOTEN  =     -1131.86582730 eV

  energy without entropy =    -1131.86582730  energy(sigma->0) =    -1131.86582730
  exchange ACFDT corr.  =        -0.00000000  see jH, gK, PRB 81, 115126


--------------------------------------------------------------------------------------------------------




--------------------------------------- Iteration      1(   3)  ---------------------------------------


    POTLOK:  cpu time    0.5394: real time    0.5394
    SETDIJ:  cpu time    0.2035: real time    0.2039
    TRIAL :  cpu time  133.3454: real time  144.4006
    CORREC:  cpu time    0.0006: real time    0.0008
    CHARGE:  cpu time    0.3002: real time    0.3194
    --------------------------------------------
      LOOP:  cpu time  134.3939: real time  145.4770

 eigenvalue-minimisations  :     0
 total energy-change (2. order) :-0.4087258E+01  (-0.1322619E+01)
 number of electron    1730.0000273 magnetization       0.0000000
 augmentation part      752.9752062 magnetization      -0.0000580

 Free energy of the ion-electron system (eV)
  ---------------------------------------------------
  alpha Z        PSCENC =      6939.29392558
  Ewald energy   TEWEN  =   -126938.26610891
  -Hartree energ DENC   =    -72201.77157078
  -exchange      EXHF   =      4601.82278517
  -V(xc)+E(xc)   XCENC  =      4888.21289291
  PAW double counting   =    153529.89976963  -180897.62295583
  entropy T*S    EENTRO =        -0.00000000
  eigenvalues    EBANDS =    -16930.34058076
  atomic energy  EATOM  =    225872.81875723
  ---------------------------------------------------
  free energy    TOTEN  =     -1135.95308575 eV

  energy without entropy =    -1135.95308575  energy(sigma->0) =    -1135.95308575
  exchange ACFDT corr.  =        -0.00000000  see jH, gK, PRB 81, 115126


--------------------------------------------------------------------------------------------------------




--------------------------------------- Iteration      1(   4)  ---------------------------------------


    POTLOK:  cpu time    0.5392: real time    0.5395
    SETDIJ:  cpu time    0.2100: real time    0.2102
    TRIAL :  cpu time  133.1145: real time  144.2652
    CORREC:  cpu time    0.0006: real time    0.0008
    CHARGE:  cpu time    0.2948: real time    0.3210
    --------------------------------------------
      LOOP:  cpu time  134.1608: real time  145.3534

 eigenvalue-minimisations  :     0
 total energy-change (2. order) :-0.6269465E+00  (-0.1086469E+01)
 number of electron    1730.0000274 magnetization       0.0000000
 augmentation part      754.4835858 magnetization      -0.0000591

 Free energy of the ion-electron system (eV)
  ---------------------------------------------------
  alpha Z        PSCENC =      6939.29392558
  Ewald energy   TEWEN  =   -126938.26610891
  -Hartree energ DENC   =    -72082.10276727
  -exchange      EXHF   =      4601.56763328
  -V(xc)+E(xc)   XCENC  =      4885.37187444
  PAW double counting   =    153484.55391254  -180794.86862813
  entropy T*S    EENTRO =        -0.00000000
  eigenvalues    EBANDS =    -17104.94863103
  atomic energy  EATOM  =    225872.81875723
  ---------------------------------------------------
  free energy    TOTEN  =     -1136.58003226 eV

  energy without entropy =    -1136.58003226  energy(sigma->0) =    -1136.58003226
  exchange ACFDT corr.  =         0.00000000  see jH, gK, PRB 81, 115126


--------------------------------------------------------------------------------------------------------




--------------------------------------- Iteration      1(   5)  ---------------------------------------


    POTLOK:  cpu time    0.5400: real time    0.5400
    SETDIJ:  cpu time    0.2033: real time    0.2035
    TRIAL :  cpu time  132.9148: real time  144.2295
    CORREC:  cpu time    0.0006: real time    0.0008
    CHARGE:  cpu time    0.3133: real time    0.3224
    --------------------------------------------
      LOOP:  cpu time  133.9768: real time  145.3102

 eigenvalue-minimisations  :     0
 total energy-change (2. order) :-0.5114366E+00  (-0.2909136E+00)
 number of electron    1730.0000273 magnetization       0.0000000
 augmentation part      754.5051084 magnetization      -0.0000704

 Free energy of the ion-electron system (eV)
  ---------------------------------------------------
  alpha Z        PSCENC =      6939.29392558
  Ewald energy   TEWEN  =   -126938.26610891
  -Hartree energ DENC   =    -72249.14173926
  -exchange      EXHF   =      4606.88232510
  -V(xc)+E(xc)   XCENC  =      4890.90117857
  PAW double counting   =    153709.66385499  -181142.03412413
  entropy T*S    EENTRO =        -0.00000000
  eigenvalues    EBANDS =    -16827.20953801
  atomic energy  EATOM  =    225872.81875723
  ---------------------------------------------------
  free energy    TOTEN  =     -1137.09146883 eV

  energy without entropy =    -1137.09146883  energy(sigma->0) =    -1137.09146883
  exchange ACFDT corr.  =        -0.00000000  see jH, gK, PRB 81, 115126


--------------------------------------------------------------------------------------------------------




--------------------------------------- Iteration      1(   6)  ---------------------------------------


    POTLOK:  cpu time    0.5395: real time    0.5396
    SETDIJ:  cpu time    0.2035: real time    0.2041
    TRIAL :  cpu time  132.4596: real time  143.6946
    CORREC:  cpu time    0.0006: real time    0.0008
    CHARGE:  cpu time    0.3105: real time    0.3200
    --------------------------------------------
      LOOP:  cpu time  133.5193: real time  144.7708

 eigenvalue-minimisations  :     0
 total energy-change (2. order) :-0.2032626E+00  (-0.1757432E+00)
 number of electron    1730.0000273 magnetization       0.0000000
 augmentation part      754.0809792 magnetization      -0.0000576

 Free energy of the ion-electron system (eV)
  ---------------------------------------------------
  alpha Z        PSCENC =      6939.29392558
  Ewald energy   TEWEN  =   -126938.26610891
  -Hartree energ DENC   =    -72255.59281951
  -exchange      EXHF   =      4607.75418699
  -V(xc)+E(xc)   XCENC  =      4891.32229940
  PAW double counting   =    153696.86996744  -181110.94830071
  entropy T*S    EENTRO =        -0.00000000
  eigenvalues    EBANDS =    -16840.54663895
  atomic energy  EATOM  =    225872.81875723
  ---------------------------------------------------
  free energy    TOTEN  =     -1137.29473144 eV

  energy without entropy =    -1137.29473144  energy(sigma->0) =    -1137.29473144
  exchange ACFDT corr.  =        -0.00000000  see jH, gK, PRB 81, 115126


--------------------------------------------------------------------------------------------------------




--------------------------------------- Iteration      1(   7)  ---------------------------------------


    POTLOK:  cpu time    0.5382: real time    0.5382
    SETDIJ:  cpu time    0.2035: real time    0.2038
    TRIAL :  cpu time  132.6264: real time  144.5646
    CORREC:  cpu time    0.0007: real time    0.0008
    CHARGE:  cpu time    0.2930: real time    0.3168
    --------------------------------------------
      LOOP:  cpu time  133.6649: real time  145.6340

 eigenvalue-minimisations  :     0
 total energy-change (2. order) :-0.8195380E-01  (-0.9077180E-01)
 number of electron    1730.0000273 magnetization       0.0000000
 augmentation part      754.3753769 magnetization      -0.0000428

 Free energy of the ion-electron system (eV)
  ---------------------------------------------------
  alpha Z        PSCENC =      6939.29392558
  Ewald energy   TEWEN  =   -126938.26610891
  -Hartree energ DENC   =    -72206.64693721
  -exchange      EXHF   =      4606.75052128
  -V(xc)+E(xc)   XCENC  =      4889.84922667
  PAW double counting   =    153605.75526211  -180979.36905551
  entropy T*S    EENTRO =        -0.00000000
  eigenvalues    EBANDS =    -16927.56227648
  atomic energy  EATOM  =    225872.81875723
  ---------------------------------------------------
  free energy    TOTEN  =     -1137.37668524 eV

  energy without entropy =    -1137.37668524  energy(sigma->0) =    -1137.37668524
  exchange ACFDT corr.  =        -0.00000000  see jH, gK, PRB 81, 115126


--------------------------------------------------------------------------------------------------------




--------------------------------------- Iteration      1(   8)  ---------------------------------------


    POTLOK:  cpu time    0.5378: real time    0.5380
    SETDIJ:  cpu time    0.2033: real time    0.2035
    TRIAL :  cpu time  132.6417: real time  143.9241
    CORREC:  cpu time    0.0006: real time    0.0008
    CHARGE:  cpu time    0.3069: real time    0.3143
    --------------------------------------------
      LOOP:  cpu time  133.6930: real time  144.9918

 eigenvalue-minimisations  :     0
 total energy-change (2. order) :-0.5343203E-01  (-0.1911832E-01)
 number of electron    1730.0000273 magnetization       0.0000000
 augmentation part      754.4597904 magnetization      -0.0000293

 Free energy of the ion-electron system (eV)
  ---------------------------------------------------
  alpha Z        PSCENC =      6939.29392558
  Ewald energy   TEWEN  =   -126938.26610891
  -Hartree energ DENC   =    -72247.47567713
  -exchange      EXHF   =      4607.76068059
  -V(xc)+E(xc)   XCENC  =      4891.09132569
  PAW double counting   =    153633.64542969  -181036.37220507
  entropy T*S    EENTRO =        -0.00000000
  eigenvalues    EBANDS =    -16859.92624494
  atomic energy  EATOM  =    225872.81875723
  ---------------------------------------------------
  free energy    TOTEN  =     -1137.43011726 eV

  energy without entropy =    -1137.43011726  energy(sigma->0) =    -1137.43011726
  exchange ACFDT corr.  =        -0.00000000  see jH, gK, PRB 81, 115126


--------------------------------------------------------------------------------------------------------




--------------------------------------- Iteration      1(   9)  ---------------------------------------


    POTLOK:  cpu time    0.5392: real time    0.5393
    SETDIJ:  cpu time    0.2022: real time    0.2032
    TRIAL :  cpu time  132.7088: real time  144.0801
    CORREC:  cpu time    0.0006: real time    0.0008
    CHARGE:  cpu time    0.2919: real time    0.3184
    --------------------------------------------
      LOOP:  cpu time  133.7452: real time  145.1520

 eigenvalue-minimisations  :     0
 total energy-change (2. order) :-0.1315918E-01  (-0.1545709E-01)
 number of electron    1730.0000273 magnetization       0.0000000
 augmentation part      754.3522225 magnetization      -0.0000191

 Free energy of the ion-electron system (eV)
  ---------------------------------------------------
  alpha Z        PSCENC =      6939.29392558
  Ewald energy   TEWEN  =   -126938.26610891
  -Hartree energ DENC   =    -72255.52811395
  -exchange      EXHF   =      4608.05908690
  -V(xc)+E(xc)   XCENC  =      4891.34905001
  PAW double counting   =    153635.26302064  -181040.80139911
  entropy T*S    EENTRO =        -0.00000000
  eigenvalues    EBANDS =    -16849.63149484
  atomic energy  EATOM  =    225872.81875723
  ---------------------------------------------------
  free energy    TOTEN  =     -1137.44327644 eV

  energy without entropy =    -1137.44327644  energy(sigma->0) =    -1137.44327644
  exchange ACFDT corr.  =        -0.00000000  see jH, gK, PRB 81, 115126


--------------------------------------------------------------------------------------------------------




--------------------------------------- Iteration      1(  10)  ---------------------------------------


    POTLOK:  cpu time    0.5386: real time    0.5387
    SETDIJ:  cpu time    0.2100: real time    0.2102
    TRIAL :  cpu time  133.5357: real time  144.5991
    CORREC:  cpu time    0.0006: real time    0.0008
    CHARGE:  cpu time    0.3096: real time    0.3158
    --------------------------------------------
      LOOP:  cpu time  134.5980: real time  145.6758

 eigenvalue-minimisations  :     0
 total energy-change (2. order) :-0.6532369E-02  (-0.7301726E-02)
 number of electron    1730.0000273 magnetization       0.0000000
 augmentation part      754.4623052 magnetization      -0.0000119

 Free energy of the ion-electron system (eV)
  ---------------------------------------------------
  alpha Z        PSCENC =      6939.29392558
  Ewald energy   TEWEN  =   -126938.26610891
  -Hartree energ DENC   =    -72236.52968226
  -exchange      EXHF   =      4607.72104179
  -V(xc)+E(xc)   XCENC  =      4890.77778816
  PAW double counting   =    153612.64400801  -181004.79070704
  entropy T*S    EENTRO =        -0.00000000
  eigenvalues    EBANDS =    -16881.11883137
  atomic energy  EATOM  =    225872.81875723
  ---------------------------------------------------
  free energy    TOTEN  =     -1137.44980881 eV

  energy without entropy =    -1137.44980881  energy(sigma->0) =    -1137.44980881
  exchange ACFDT corr.  =        -0.00000000  see jH, gK, PRB 81, 115126


--------------------------------------------------------------------------------------------------------




--------------------------------------- Iteration      1(  11)  ---------------------------------------


    POTLOK:  cpu time    0.5381: real time    0.5383
    SETDIJ:  cpu time    0.2030: real time    0.2033
    TRIAL :  cpu time  132.9768: real time  144.1245
    CORREC:  cpu time    0.0006: real time    0.0008
    CHARGE:  cpu time    0.3134: real time    0.3212
    --------------------------------------------
      LOOP:  cpu time  134.0344: real time  145.1962

 eigenvalue-minimisations  :     0
 total energy-change (2. order) :-0.4289954E-02  (-0.1471374E-02)
 number of electron    1730.0000273 magnetization       0.0000000
 augmentation part      754.4889895 magnetization      -0.0000080

 Free energy of the ion-electron system (eV)
  ---------------------------------------------------
  alpha Z        PSCENC =      6939.29392558
  Ewald energy   TEWEN  =   -126938.26610891
  -Hartree energ DENC   =    -72247.45510251
  -exchange      EXHF   =      4608.06879077
  -V(xc)+E(xc)   XCENC  =      4891.12724353
  PAW double counting   =    153627.84134158  -181028.69741549
  entropy T*S    EENTRO =        -0.00000000
  eigenvalues    EBANDS =    -16862.18553055
  atomic energy  EATOM  =    225872.81875723
  ---------------------------------------------------
  free energy    TOTEN  =     -1137.45409877 eV

  energy without entropy =    -1137.45409877  energy(sigma->0) =    -1137.45409877
  exchange ACFDT corr.  =        -0.00000000  see jH, gK, PRB 81, 115126


--------------------------------------------------------------------------------------------------------




--------------------------------------- Iteration      1(  12)  ---------------------------------------


    POTLOK:  cpu time    0.5387: real time    0.5390
    SETDIJ:  cpu time    0.2032: real time    0.2035
    TRIAL :  cpu time  132.5031: real time  143.8412
    CORREC:  cpu time    0.0006: real time    0.0008
    CHARGE:  cpu time    0.3027: real time    0.3168
    --------------------------------------------
      LOOP:  cpu time  133.5505: real time  144.9110

 eigenvalue-minimisations  :     0
 total energy-change (2. order) :-0.1081362E-02  (-0.1117937E-02)
 number of electron    1730.0000273 magnetization       0.0000000
 augmentation part      754.4612728 magnetization      -0.0000055

 Free energy of the ion-electron system (eV)
  ---------------------------------------------------
  alpha Z        PSCENC =      6939.29392558
  Ewald energy   TEWEN  =   -126938.26610891
  -Hartree energ DENC   =    -72248.56311272
  -exchange      EXHF   =      4608.16078781
  -V(xc)+E(xc)   XCENC  =      4891.17470834
  PAW double counting   =    153630.77911016  -181031.99272612
  entropy T*S    EENTRO =        -0.00000000
  eigenvalues    EBANDS =    -16860.86052150
  atomic energy  EATOM  =    225872.81875723
  ---------------------------------------------------
  free energy    TOTEN  =     -1137.45518013 eV

  energy without entropy =    -1137.45518013  energy(sigma->0) =    -1137.45518013
  exchange ACFDT corr.  =        -0.00000000  see jH, gK, PRB 81, 115126


--------------------------------------------------------------------------------------------------------




--------------------------------------- Iteration      1(  13)  ---------------------------------------


    POTLOK:  cpu time    0.5395: real time    0.5396
    SETDIJ:  cpu time    0.2044: real time    0.2046
    TRIAL :  cpu time  133.8630: real time  144.7180
    CORREC:  cpu time    0.0006: real time    0.0008
    CHARGE:  cpu time    0.3035: real time    0.3187
    --------------------------------------------
      LOOP:  cpu time  134.9142: real time  145.7911

 eigenvalue-minimisations  :     0
 total energy-change (2. order) :-0.4224827E-03  (-0.7099090E-03)
 number of electron    1730.0000273 magnetization       0.0000000
 augmentation part      754.4996783 magnetization      -0.0000049

 Free energy of the ion-electron system (eV)
  ---------------------------------------------------
  alpha Z        PSCENC =      6939.29392558
  Ewald energy   TEWEN  =   -126938.26610891
  -Hartree energ DENC   =    -72243.41929723
  -exchange      EXHF   =      4608.07194565
  -V(xc)+E(xc)   XCENC  =      4891.02416067
  PAW double counting   =    153624.90312072  -181022.44288569
  entropy T*S    EENTRO =        -0.00000000
  eigenvalues    EBANDS =    -16869.43922063
  atomic energy  EATOM  =    225872.81875723
  ---------------------------------------------------
  free energy    TOTEN  =     -1137.45560261 eV

  energy without entropy =    -1137.45560261  energy(sigma->0) =    -1137.45560261
  exchange ACFDT corr.  =        -0.00000000  see jH, gK, PRB 81, 115126


--------------------------------------------------------------------------------------------------------




--------------------------------------- Iteration      1(  14)  ---------------------------------------


    POTLOK:  cpu time    0.5389: real time    0.5396
    SETDIJ:  cpu time    0.2056: real time    0.2058
    TRIAL :  cpu time  133.1554: real time  144.2706
    CORREC:  cpu time    0.0007: real time    0.0008
    CHARGE:  cpu time    0.2938: real time    0.3204
    --------------------------------------------
      LOOP:  cpu time  134.1961: real time  145.3506

 eigenvalue-minimisations  :     0
 total energy-change (2. order) :-0.3470500E-03  (-0.1701007E-03)
 number of electron    1730.0000273 magnetization       0.0000000
 augmentation part      754.4946449 magnetization      -0.0000043

 Free energy of the ion-electron system (eV)
  ---------------------------------------------------
  alpha Z        PSCENC =      6939.29392558
  Ewald energy   TEWEN  =   -126938.26610891
  -Hartree energ DENC   =    -72247.60849628
  -exchange      EXHF   =      4608.18951749
  -V(xc)+E(xc)   XCENC  =      4891.15934690
  PAW double counting   =    153629.36643142  -181029.91673298
  entropy T*S    EENTRO =        -0.00000000
  eigenvalues    EBANDS =    -16862.49259012
  atomic energy  EATOM  =    225872.81875723
  ---------------------------------------------------
  free energy    TOTEN  =     -1137.45594966 eV

  energy without entropy =    -1137.45594966  energy(sigma->0) =    -1137.45594966
  exchange ACFDT corr.  =        -0.00000000  see jH, gK, PRB 81, 115126


--------------------------------------------------------------------------------------------------------




--------------------------------------- Iteration      1(  15)  ---------------------------------------


    POTLOK:  cpu time    0.5396: real time    0.5398
    SETDIJ:  cpu time    0.2035: real time    0.2037
    TRIAL :  cpu time  132.7606: real time  143.9731
    CORREC:  cpu time    0.0006: real time    0.0008
    CHARGE:  cpu time    0.3125: real time    0.3211
    --------------------------------------------
      LOOP:  cpu time  133.8187: real time  145.0464

 eigenvalue-minimisations  :     0
 total energy-change (2. order) :-0.1077402E-03  (-0.4825124E-04)
 number of electron    1730.0000273 magnetization       0.0000000
 augmentation part      754.4940189 magnetization      -0.0000034

 Free energy of the ion-electron system (eV)
  ---------------------------------------------------
  alpha Z        PSCENC =      6939.29392558
  Ewald energy   TEWEN  =   -126938.26610891
  -Hartree energ DENC   =    -72246.41587636
  -exchange      EXHF   =      4608.17226679
  -V(xc)+E(xc)   XCENC  =      4891.12647316
  PAW double counting   =    153627.44542448  -181026.99051173
  entropy T*S    EENTRO =        -0.00000000
  eigenvalues    EBANDS =    -16864.64040763
  atomic energy  EATOM  =    225872.81875723
  ---------------------------------------------------
  free energy    TOTEN  =     -1137.45605740 eV

  energy without entropy =    -1137.45605740  energy(sigma->0) =    -1137.45605740
  exchange ACFDT corr.  =        -0.00000000  see jH, gK, PRB 81, 115126


--------------------------------------------------------------------------------------------------------




--------------------------------------- Iteration      1(  16)  ---------------------------------------


    POTLOK:  cpu time    0.5383: real time    0.5385
    SETDIJ:  cpu time    0.2039: real time    0.2040
    TRIAL :  cpu time  134.7865: real time  146.0683
    CORREC:  cpu time    0.0006: real time    0.0008
    CHARGE:  cpu time    0.2922: real time    0.3155
[...]
     15.04047     13.64163     11.52131         0.009590      0.214567      0.210830
     12.28376      0.17193      9.58803        -0.312742     -0.001163      0.009835
     15.06333      2.11480     11.52798         0.312950     -0.001947     -0.016990
     12.30293     15.54503     13.40313        -0.003443     -0.219208     -0.226557
     12.31480     11.55648      1.94244        -0.003723      0.216931      0.215818
     15.01126     13.40186      0.00056        -0.311500      0.003871     -0.007155
     12.32616     11.72831     13.41303         0.305142      0.001697     -0.012994
     15.03934      9.82415     15.30982         0.002719     -0.210322     -0.214097
     15.01723      5.80771      3.84877         0.022467      0.256579      0.217874
     12.28374      7.70252      1.91537        -0.310381      0.004071      0.005365
     15.07020      9.64928      3.83254         0.305117     -0.020636     -0.007140
     12.30814      7.76267      5.72716        -0.004352     -0.217252     -0.216705
 -----------------------------------------------------------------------------------
    total drift:                                0.000550     -0.002575      0.004837


--------------------------------------------------------------------------------------------------------



  FREE ENERGIE OF THE ION-ELECTRON SYSTEM (eV)
  ---------------------------------------------------
  free  energy   TOTEN  =     -1137.45611345 eV

  energy  without entropy=    -1137.45611345  energy(sigma->0) =    -1137.45611345
 


--------------------------------------------------------------------------------------------------------


    POTLOK:  cpu time    0.7116: real time    0.7120


--------------------------------------------------------------------------------------------------------


 writing wavefunctions
     LOOP+:  cpu time 2731.5116: real time 2969.5422
    4ORBIT:  cpu time    0.0000: real time    0.0000
 


 total charge     
 
# of ion       s       p       d       tot
------------------------------------------
    1        0.543   0.562   9.793  10.898
    2        0.540   0.551   9.791  10.883
    3        0.538   0.546   9.792  10.875
    4        0.540   0.552   9.791  10.883
    5        0.540   0.551   9.791  10.882
    6        0.541   0.554   9.791  10.886
    7        0.540   0.551   9.791  10.882
    8        0.540   0.551   9.791  10.882
    9        0.543   0.562   9.793  10.898
   10        0.540   0.551   9.791  10.882
   11        0.539   0.549   9.791  10.880
   12        0.540   0.551   9.791  10.882
   13        0.540   0.551   9.791  10.882
   14        0.539   0.548   9.791  10.878
   15        0.540   0.550   9.791  10.881
   16        0.541   0.553   9.791  10.884
   17        0.541   0.553   9.791  10.884
   18        0.540   0.551   9.791  10.882
   19        0.540   0.550   9.791  10.881
   20        0.541   0.553   9.791  10.885
   21        0.540   0.551   9.791  10.883
   22        0.541   0.553   9.791  10.885
   23        0.542   0.555   9.791  10.889
   24        0.541   0.549   9.791  10.880
   25        0.540   0.549   9.791  10.880
   26        0.540   0.551   9.791  10.882
   27        0.540   0.551   9.791  10.882
   28        0.546   0.566   9.791  10.904
   29        0.540   0.550   9.791  10.880
   30        0.541   0.553   9.791  10.885
   31        0.540   0.551   9.791  10.882
   32        0.541   0.553   9.791  10.884
   33        0.539   0.549   9.791  10.880
   34        0.540   0.551   9.791  10.882
   35        0.538   0.546   9.792  10.875
   36        0.541   0.553   9.791  10.885
   37        0.540   0.550   9.791  10.880
   38        0.539   0.548   9.791  10.878
   39        0.540   0.551   9.791  10.882
   40        0.546   0.566   9.791  10.904
   41        0.541   0.553   9.791  10.884
   42        0.540   0.551   9.791  10.883
   43        0.540   0.550   9.791  10.881
   44        0.541   0.549   9.791  10.880
   45        0.540   0.551   9.791  10.883
   46        0.541   0.554   9.791  10.886
   47        0.539   0.549   9.791  10.880
   48        1.094   1.255  10.078  12.427
   49        1.091   1.251  10.075  12.416
   50        1.092   1.249  10.072  12.412
   51        1.098   1.244  10.075  12.416
   52        1.092   1.249  10.072  12.413
   53        1.092   1.249  10.072  12.413
   54        1.092   1.247  10.072  12.411
   55        1.092   1.249  10.072  12.413
   56        1.092   1.244  10.072  12.407
   57        1.092   1.250  10.073  12.415
   58        1.102   1.240  10.071  12.413
   59        1.098   1.244  10.075  12.416
   60        1.092   1.250  10.072  12.414
   61        1.092   1.248  10.072  12.412
   62        1.102   1.240  10.071  12.413
   63        1.092   1.249  10.072  12.413
   64        1.092   1.249  10.072  12.414
   65        1.092   1.250  10.072  12.414
   66        1.093   1.245  10.071  12.409
   67        1.091   1.250  10.072  12.414
   68        1.094   1.250  10.073  12.416
   69        1.092   1.248  10.072  12.412
   70        1.095   1.251  10.072  12.418
   71        1.092   1.250  10.073  12.414
   72        1.092   1.249  10.072  12.414
   73        1.092   1.249  10.072  12.412
   74        1.092   1.249  10.072  12.414
   75        1.092   1.249  10.072  12.413
   76        1.094   1.250  10.073  12.416
   77        1.092   1.249  10.072  12.413
   78        1.092   1.249  10.072  12.413
   79        1.092   1.250  10.073  12.415
   80        1.092   1.244  10.072  12.407
   81        1.091   1.251  10.075  12.416
   82        1.093   1.245  10.071  12.409
   83        1.092   1.249  10.072  12.413
   84        1.092   1.250  10.072  12.414
   85        1.092   1.249  10.072  12.413
   86        1.095   1.251  10.072  12.418
   87        1.092   1.250  10.073  12.415
   88        1.094   1.255  10.078  12.427
   89        1.092   1.248  10.072  12.412
   90        1.092   1.249  10.072  12.413
   91        1.091   1.250  10.072  12.414
   92        1.092   1.249  10.072  12.413
   93        1.092   1.250  10.073  12.415
   94        1.092   1.249  10.072  12.414
   95        1.092   1.250  10.073  12.414
   96        1.353   0.951  10.026  12.330
   97        1.029   1.490   0.000   2.518
   98        1.022   1.515   0.000   2.537
   99        1.038   1.500   0.000   2.537
  100        1.021   1.519   0.000   2.540
  101        1.021   1.519   0.000   2.539
  102        1.021   1.519   0.000   2.540
  103        1.023   1.513   0.000   2.536
  104        1.021   1.518   0.000   2.539
  105        1.021   1.518   0.000   2.539
  106        1.021   1.519   0.000   2.540
  107        1.021   1.518   0.000   2.539
  108        1.021   1.518   0.000   2.539
  109        1.023   1.517   0.000   2.540
  110        1.021   1.517   0.000   2.538
  111        1.021   1.518   0.000   2.539
  112        1.020   1.516   0.000   2.537
  113        1.021   1.518   0.000   2.539
  114        1.021   1.518   0.000   2.539
  115        1.021   1.519   0.000   2.540
  116        1.022   1.514   0.000   2.536
  117        1.021   1.518   0.000   2.539
  118        1.026   1.514   0.000   2.540
  119        1.021   1.517   0.000   2.538
  120        1.025   1.513   0.000   2.537
  121        1.021   1.517   0.000   2.538
  122        1.027   1.517   0.000   2.544
  123        1.021   1.518   0.000   2.539
  124        1.021   1.519   0.000   2.540
  125        1.021   1.519   0.000   2.539
  126        1.021   1.517   0.000   2.537
  127        1.021   1.517   0.000   2.539
  128        1.020   1.519   0.000   2.539
  129        1.020   1.519   0.000   2.540
  130        1.021   1.518   0.000   2.539
  131        1.021   1.518   0.000   2.539
  132        1.020   1.519   0.000   2.540
  133        1.021   1.518   0.000   2.539
  134        1.021   1.518   0.000   2.539
  135        1.021   1.518   0.000   2.539
  136        1.021   1.518   0.000   2.539
  137        1.020   1.519   0.000   2.540
  138        1.021   1.519   0.000   2.540
  139        1.021   1.519   0.000   2.540
  140        1.021   1.519   0.000   2.540
  141        1.021   1.519   0.000   2.539
  142        1.022   1.519   0.000   2.540
  143        1.022   1.518   0.000   2.540
  144        1.021   1.519   0.000   2.539
  145        1.021   1.518   0.000   2.539
  146        1.021   1.521   0.000   2.542
  147        1.021   1.517   0.000   2.538
  148        1.020   1.519   0.000   2.539
  149        1.021   1.519   0.000   2.539
  150        1.021   1.517   0.000   2.539
  151        1.021   1.518   0.000   2.539
  152        1.021   1.519   0.000   2.540
  153        1.020   1.519   0.000   2.539
  154        1.021   1.517   0.000   2.538
  155        1.021   1.521   0.000   2.542
  156        1.021   1.518   0.000   2.539
  157        1.021   1.519   0.000   2.540
  158        1.021   1.518   0.000   2.539
  159        1.021   1.517   0.000   2.539
  160        1.021   1.519   0.000   2.539
  161        1.021   1.519   0.000   2.540
  162        1.038   1.499   0.000   2.537
  163        1.022   1.515   0.000   2.537
  164        1.029   1.490   0.000   2.518
  165        1.021   1.518   0.000   2.539
  166        1.023   1.513   0.000   2.536
  167        1.021   1.519   0.000   2.540
  168        1.021   1.519   0.000   2.539
  169        1.021   1.518   0.000   2.539
  170        1.021   1.518   0.000   2.539
  171        1.021   1.519   0.000   2.540
  172        1.021   1.518   0.000   2.539
  173        1.020   1.516   0.000   2.537
  174        1.021   1.518   0.000   2.539
  175        1.021   1.517   0.000   2.538
  176        1.023   1.517   0.000   2.540
  177        1.021   1.519   0.000   2.540
  178        1.021   1.518   0.000   2.539
  179        1.027   1.517   0.000   2.544
  180        1.021   1.517   0.000   2.537
  181        1.020   1.519   0.000   2.539
  182        1.021   1.517   0.000   2.539
  183        1.021   1.517   0.000   2.537
  184        1.021   1.519   0.000   2.539
  185        1.022   1.514   0.000   2.536
  186        1.021   1.519   0.000   2.540
  187        1.021   1.518   0.000   2.539
  188        1.021   1.518   0.000   2.539
  189        1.025   1.513   0.000   2.537
  190        1.021   1.517   0.000   2.538
  191        1.026   1.514   0.000   2.540
  192        1.021   1.518   0.000   2.539
--------------------------------------------------
tot        177.302 232.435 953.7021363.439
 


 magnetization (x)
 
# of ion       s       p       d       tot
------------------------------------------
    1       -0.000  -0.000  -0.000  -0.000
    2       -0.000  -0.000  -0.000  -0.000
    3       -0.000  -0.000  -0.000  -0.000
    4       -0.000   0.000   0.000   0.000
    5        0.000  -0.000  -0.000  -0.000
    6       -0.000  -0.000   0.000  -0.000
    7       -0.000  -0.000   0.000  -0.000
    8       -0.000  -0.000   0.000  -0.000
    9        0.000   0.000  -0.000   0.000
   10        0.000   0.000  -0.000   0.000
   11        0.000  -0.000  -0.000  -0.000
   12       -0.000  -0.000   0.000  -0.000
   13       -0.000  -0.000  -0.000  -0.000
   14        0.000   0.000  -0.000   0.000
   15        0.000   0.000  -0.000   0.000
   16       -0.000  -0.000   0.000  -0.000
   17        0.000  -0.000  -0.000  -0.000
   18        0.000   0.000  -0.000   0.000
   19        0.000   0.000  -0.000   0.000
   20       -0.000  -0.000   0.000  -0.000
   21       -0.000  -0.000  -0.000  -0.000
   22        0.000  -0.000  -0.000  -0.000
   23        0.000   0.000  -0.000   0.000
   24       -0.000  -0.000   0.000  -0.000
   25        0.000   0.000  -0.000   0.000
   26        0.000   0.000  -0.000   0.000
   27       -0.000  -0.000   0.000  -0.000
   28        0.000   0.000  -0.000   0.000
   29        0.000   0.000  -0.000   0.000
   30        0.000   0.000  -0.000   0.000
   31       -0.000  -0.000   0.000  -0.000
   32       -0.000  -0.000   0.000  -0.000
   33       -0.000  -0.000   0.000  -0.000
   34        0.000   0.000  -0.000   0.000
   35       -0.000  -0.000  -0.000  -0.000
   36       -0.000  -0.000   0.000  -0.000
   37        0.000  -0.000  -0.000   0.000
   38        0.000   0.000  -0.000   0.000
   39        0.000   0.000  -0.000   0.000
   40       -0.000  -0.000   0.000  -0.000
   41       -0.000  -0.000  -0.000  -0.000
   42        0.000   0.000  -0.000   0.000
   43        0.000   0.000  -0.000   0.000
   44       -0.000  -0.000   0.000  -0.000
   45        0.000   0.000  -0.000   0.000
   46        0.000  -0.000  -0.000  -0.000
   47        0.000   0.000  -0.000   0.000
   48        0.000   0.000  -0.000   0.000
   49       -0.000  -0.000   0.000  -0.000
   50       -0.000  -0.000   0.000  -0.000
   51        0.000   0.000   0.000   0.000
   52       -0.000  -0.000   0.000  -0.000
   53        0.000   0.000  -0.000   0.000
   54        0.000   0.000  -0.000   0.000
   55        0.000   0.000  -0.000   0.000
   56       -0.000  -0.000   0.000  -0.000
   57       -0.000  -0.000   0.000  -0.000
   58        0.000   0.000  -0.000   0.000
   59       -0.000  -0.000   0.000  -0.000
   60        0.000   0.000   0.000   0.000
   61        0.000   0.000  -0.000   0.000
   62        0.000   0.000  -0.000   0.000
   63        0.000   0.000  -0.000   0.000
   64        0.000   0.000  -0.000   0.000
   65       -0.000  -0.000   0.000  -0.000
   66        0.000   0.000  -0.000   0.000
   67        0.000   0.000  -0.000   0.000
   68        0.000   0.000  -0.000   0.000
   69       -0.000  -0.000   0.000  -0.000
   70        0.000   0.000  -0.000   0.000
   71       -0.000  -0.000   0.000  -0.000
   72        0.000  -0.000   0.000   0.000
   73        0.000   0.000  -0.000   0.000
   74        0.000   0.000   0.000   0.000
   75        0.000   0.000  -0.000   0.000
   76        0.000   0.000   0.000   0.000
   77       -0.000   0.000  -0.000   0.000
   78        0.000   0.000   0.000   0.000
   79        0.000   0.000  -0.000   0.000
   80       -0.000  -0.000   0.000  -0.000
   81        0.000   0.000   0.000   0.000
   82        0.000   0.000  -0.000   0.000
   83        0.000   0.000  -0.000   0.000
   84        0.000   0.000   0.000   0.000
   85        0.000   0.000  -0.000   0.000
   86        0.000   0.000  -0.000   0.000
   87       -0.000  -0.000   0.000  -0.000
   88        0.000  -0.000  -0.000  -0.000
   89        0.000   0.000  -0.000   0.000
   90        0.000   0.000  -0.000   0.000
   91        0.000   0.000  -0.000   0.000
   92       -0.000  -0.000   0.000  -0.000
   93       -0.000  -0.000   0.000  -0.000
   94        0.000   0.000   0.000   0.000
   95       -0.000  -0.000  -0.000  -0.000
   96        0.000  -0.000  -0.000  -0.000
   97       -0.000  -0.000   0.000  -0.000
   98        0.000   0.000   0.000   0.000
   99       -0.000  -0.000   0.000  -0.000
  100       -0.000  -0.000   0.000  -0.000
  101       -0.000  -0.000   0.000  -0.000
  102        0.000   0.000   0.000   0.000
  103       -0.000  -0.000   0.000  -0.000
  104        0.000   0.000   0.000   0.000
  105       -0.000  -0.000   0.000  -0.000
  106       -0.000  -0.000   0.000  -0.000
  107        0.000   0.000   0.000   0.000
  108        0.000   0.000   0.000   0.000
  109        0.000   0.000   0.000   0.000
  110       -0.000  -0.000   0.000  -0.000
  111        0.000   0.000   0.000   0.000
  112       -0.000  -0.000   0.000  -0.000
  113        0.000   0.000   0.000   0.000
  114        0.000   0.000   0.000   0.000
  115        0.000   0.000   0.000   0.000
  116        0.000  -0.000   0.000   0.000
  117        0.000  -0.000   0.000  -0.000
  118       -0.000  -0.000   0.000  -0.000
  119       -0.000  -0.000   0.000  -0.000
  120        0.000  -0.000   0.000  -0.000
  121        0.000   0.000   0.000   0.000
  122       -0.000  -0.000   0.000  -0.000
  123       -0.000  -0.000   0.000  -0.000
  124        0.000   0.000   0.000   0.000
  125        0.000   0.000   0.000   0.000
  126       -0.000  -0.000   0.000  -0.000
  127       -0.000  -0.000   0.000  -0.000
  128       -0.000  -0.000   0.000  -0.000
  129        0.000   0.000   0.000   0.000
  130        0.000   0.000   0.000   0.000
  131       -0.000  -0.000   0.000  -0.000
  132        0.000   0.000   0.000   0.000
  133        0.000   0.000   0.000   0.000
  134       -0.000  -0.000   0.000  -0.000
  135       -0.000  -0.000   0.000  -0.000
  136        0.000  -0.000   0.000  -0.000
  137       -0.000  -0.000   0.000  -0.000
  138        0.000   0.000   0.000   0.000
  139        0.000   0.000   0.000   0.000
  140       -0.000  -0.000   0.000  -0.000
  141        0.000  -0.000   0.000  -0.000
  142       -0.000  -0.000   0.000  -0.000
  143       -0.000  -0.000   0.000  -0.000
  144       -0.000  -0.000   0.000  -0.000
  145        0.000   0.000   0.000   0.000
  146       -0.000  -0.000   0.000  -0.000
  147        0.000  -0.000   0.000  -0.000
  148        0.000   0.000   0.000   0.000
  149       -0.000   0.000   0.000   0.000
  150       -0.000  -0.000   0.000  -0.000
  151        0.000   0.000   0.000   0.000
  152       -0.000  -0.000   0.000  -0.000
  153       -0.000  -0.000   0.000  -0.000
  154       -0.000  -0.000   0.000  -0.000
  155       -0.000  -0.000   0.000  -0.000
  156        0.000   0.000   0.000   0.000
  157        0.000   0.000   0.000   0.000
  158       -0.000  -0.000   0.000  -0.000
  159        0.000  -0.000   0.000  -0.000
  160        0.000  -0.000   0.000  -0.000
  161        0.000   0.000   0.000   0.000
  162       -0.000  -0.000   0.000  -0.000
  163        0.000   0.000   0.000   0.000
  164        0.000   0.000   0.000   0.000
  165       -0.000  -0.000   0.000  -0.000
  166       -0.000  -0.000   0.000  -0.000
  167        0.000   0.000   0.000   0.000
  168       -0.000  -0.000   0.000  -0.000
  169        0.000   0.000   0.000   0.000
  170        0.000   0.000   0.000   0.000
  171       -0.000  -0.000   0.000  -0.000
  172        0.000  -0.000   0.000  -0.000
  173       -0.000  -0.000   0.000  -0.000
  174       -0.000  -0.000   0.000  -0.000
  175       -0.000  -0.000   0.000  -0.000
  176        0.000   0.000   0.000   0.000
  177        0.000   0.000   0.000   0.000
  178       -0.000  -0.000   0.000  -0.000
  179       -0.000  -0.000   0.000  -0.000
  180        0.000   0.000   0.000   0.000
  181        0.000  -0.000   0.000   0.000
  182       -0.000  -0.000   0.000  -0.000
  183       -0.000  -0.000   0.000  -0.000
  184        0.000   0.000   0.000   0.000
  185        0.000   0.000   0.000   0.000
  186        0.000   0.000   0.000   0.000
  187        0.000   0.000   0.000   0.000
  188       -0.000   0.000   0.000   0.000
  189       -0.000  -0.000   0.000  -0.000
  190       -0.000  -0.000   0.000  -0.000
  191        0.000  -0.000   0.000  -0.000
  192        0.000  -0.000   0.000  -0.000
--------------------------------------------------
tot          0.000  -0.000  -0.000  -0.000
 

 total amount of memory used by VASP MPI-rank0    96914. kBytes
=======================================================================

   base      :      30000. kBytes
   nonl-proj :      13847. kBytes
   fftplans  :       5975. kBytes
   grid      :      17618. kBytes
   one-center:        373. kBytes
   HF        :        194. kBytes
   nonlr-proj:        881. kBytes
   wavefun   :      28026. kBytes
 
  
  
 General timing and accounting informations for this job:
 ========================================================
  
                  Total CPU time used (sec):     2783.125
                            User time (sec):     2724.698
                          System time (sec):       58.427
                         Elapsed time (sec):     3030.239
  
                   Maximum memory used (kb):      353048.
                   Average memory used (kb):           0.
  
                          Minor page faults:       827352
                          Major page faults:           18
                 Voluntary context switches:      2870268
