 running on  128 total cores
 distrk:  each k-point on  128 cores,    1 groups
 distr:  one band on    8 cores,   16 groups
 using from now: INCAR     
 vasp.5.4.4.18Apr17-6-g9f103f2a35 (build Mar 26 2021 15:05:33) gamma-only       
  
 POSCAR found type information on POSCAR  Zn Ge P 
 POSCAR found :  3 types and     192 ions
 scaLAPACK will be used

 ----------------------------------------------------------------------------- 
|                                                                             |
|  ADVICE TO THIS USER RUNNING 'VASP/VAMP'   (HEAR YOUR MASTER'S VOICE ...):  |
|                                                                             |
|      You have a (more or less) 'large supercell' and for larger cells       |
|      it might be more efficient to use real space projection operators      |
|      So try LREAL= Auto  in the INCAR   file.                               |
|      Mind: If you want to do a very accurate calculations keep the          |
|      reciprocal projection scheme          (i.e. LREAL=.FALSE.)             |
|                                                                             |
 ----------------------------------------------------------------------------- 

 LDA part: xc-table for Pade appr. of Perdew
 found WAVECAR, reading the header
 POSCAR, INCAR and KPOINTS ok, starting setup
 FFT: planning ...
 reading WAVECAR
 the WAVECAR file was read successfully
 charge-density read from file: unknown                                 
 magnetization density read from file 1
 initial charge from wavefunction
 entering main loop
       N       E                     dE             d eps       ncg     rms          ort
 gam= 0.000 g(H,U,f)=  0.333E+02 0.388E+01 0.120E-08 ort(H,U,f) = 0.000E+00 0.000E+00 0.000E+00
SDA:   1    -0.112714515102E+04   -0.11271E+04   -0.14867E+02  1136   0.372E+02 0.000E+00
 gam= 0.382 g(H,U,f)=  0.228E+02 0.156E+01 0.170E-10 ort(H,U,f) =-0.149E+02 0.173E+01 0.197E-10
DMP:   2    -0.113186582730E+04   -0.47207E+01   -0.77403E+01  1136   0.244E+02-0.131E+02
 gam= 0.382 g(H,U,f)=  0.206E+01 0.823E+00 0.335E-13 ort(H,U,f) =-0.392E+00 0.151E+01 0.609E-13
DMP:   3    -0.113595308575E+04   -0.40873E+01   -0.13226E+01  1136   0.288E+01 0.112E+01
 gam= 0.382 g(H,U,f)=  0.221E+01 0.566E+00 0.791E-15 ort(H,U,f) =-0.119E+01 0.104E+01 0.202E-14
DMP:   4    -0.113658003226E+04   -0.62695E+00   -0.10865E+01  1136   0.277E+01-0.149E+00
 gam= 0.382 g(H,U,f)=  0.585E+00 0.197E+00 0.126E-18 ort(H,U,f) =-0.683E+00 0.540E+00 0.237E-17
DMP:   5    -0.113709146883E+04   -0.51144E+00   -0.29091E+00  1136   0.782E+00-0.143E+00
 gam= 0.382 g(H,U,f)=  0.245E+00 0.821E-01 0.159E-18 ort(H,U,f) = 0.512E-01 0.242E+00 0.334E-17
DMP:   6    -0.113729473144E+04   -0.20326E+00   -0.17574E+00  1136   0.328E+00 0.293E+00
 gam= 0.382 g(H,U,f)=  0.193E+00 0.450E-01 0.343E-17 ort(H,U,f) =-0.152E+00 0.123E+00-0.141E-16
DMP:   7    -0.113737668524E+04   -0.81954E-01   -0.90772E-01  1136   0.238E+00-0.285E-01
 gam= 0.382 g(H,U,f)=  0.160E-01 0.165E-01 0.404E-16 ort(H,U,f) =-0.147E-01 0.546E-01-0.165E-16
DMP:   8    -0.113743011726E+04   -0.53432E-01   -0.19118E-01  1136   0.325E-01 0.400E-01
 gam= 0.382 g(H,U,f)=  0.246E-01 0.713E-02 0.710E-17 ort(H,U,f) =-0.466E-02 0.229E-01 0.186E-16
DMP:   9    -0.113744327644E+04   -0.13159E-01   -0.15457E-01  1136   0.317E-01 0.182E-01
 gam= 0.382 g(H,U,f)=  0.169E-01 0.342E-02 0.779E-17 ort(H,U,f) =-0.163E-01 0.108E-01 0.160E-16
DMP:  10    -0.113744980881E+04   -0.65324E-02   -0.73017E-02  1136   0.203E-01-0.545E-02
 gam= 0.382 g(H,U,f)=  0.117E-02 0.131E-02 0.206E-16 ort(H,U,f) =-0.145E-02 0.457E-02 0.246E-16
DMP:  11    -0.113745409877E+04   -0.42900E-02   -0.14714E-02  1136   0.248E-02 0.313E-02
 gam= 0.382 g(H,U,f)=  0.152E-02 0.581E-03 0.342E-17 ort(H,U,f) =-0.134E-03 0.194E-02 0.126E-16
DMP:  12    -0.113745518013E+04   -0.10814E-02   -0.11179E-02  1136   0.210E-02 0.181E-02
 gam= 0.382 g(H,U,f)=  0.172E-02 0.258E-03 0.174E-17 ort(H,U,f) =-0.139E-02 0.855E-03 0.585E-17
DMP:  13    -0.113745560261E+04   -0.42248E-03   -0.70991E-03  1136   0.198E-02-0.539E-03
 gam= 0.382 g(H,U,f)=  0.350E-03 0.107E-03 0.132E-17 ort(H,U,f) =-0.440E-03 0.356E-03 0.347E-17
DMP:  14    -0.113745594966E+04   -0.34705E-03   -0.17010E-03  1136   0.457E-03-0.835E-04
 gam= 0.382 g(H,U,f)=  0.185E-04 0.437E-04 0.210E-19 ort(H,U,f) =-0.379E-05 0.157E-03 0.330E-18
DMP:  15    -0.113745605740E+04   -0.10774E-03   -0.48251E-04  1136   0.622E-04 0.153E-03
 gam= 0.382 g(H,U,f)=  0.503E-04 0.187E-04 0.140E-21 ort(H,U,f) =-0.177E-04 0.663E-04 0.118E-19
DMP:  16    -0.113745608831E+04   -0.30912E-04   -0.35032E-04  1136   0.690E-04 0.486E-04
 gam= 0.382 g(H,U,f)=  0.356E-04 0.878E-05 0.552E-19 ort(H,U,f) =-0.294E-04 0.284E-04-0.912E-19
DMP:  17    -0.113745610737E+04   -0.19057E-04   -0.17611E-04  1136   0.444E-04-0.987E-06
 gam= 0.382 g(H,U,f)=  0.127E-04 0.350E-05 0.978E-19 ort(H,U,f) =-0.127E-04 0.121E-04 0.276E-19
DMP:  18    -0.113745611345E+04   -0.60797E-05   -0.63867E-05  1136   0.162E-04-0.624E-06
 final diagonalization
   1 F= -.11374561E+04 E0= -.11374561E+04  d E =-.363371E-13  mag=     0.0000
 writing wavefunctions
