unknown system                          
           1
    16.404000    0.000000    0.000000
     0.000000   15.331377    0.000000
     0.000000    0.270104   15.328998
   Zn   Ge   P 
  47  49  96
Direct configuration=     1
   0.99824922  0.99937569  0.99747611
   0.16672645  0.62391841  0.37512320
   0.16629710  0.87451177  0.37252604
   0.99999903  0.49969077  0.75030829
   0.00013716  0.50019492  0.49952020
   0.16706887  0.12497481  0.87530573
   0.16677413  0.37513590  0.87531718
   0.99981634  0.24992691  0.50089004
   0.00174385  0.25251240  0.25062779
   0.16634238  0.87532424  0.62420542
   0.16608139  0.12491291  0.62485580
   0.00018262  0.74911277  0.00006995
   0.99986099  0.75048035  0.74980145
   0.16684241  0.37315109  0.12537514
   0.16638169  0.62310091  0.12457287
   0.33425176  0.99897603  0.25010332
   0.33426053  0.99930437  0.99908280
   0.50022633  0.62446082  0.37512631
   0.49999949  0.87488625  0.37511250
   0.33260743  0.50037400  0.75060087
   0.33313918  0.50029427  0.50001893
   0.50015905  0.12486525  0.87480531
   0.49999910  0.37595695  0.87404132
   0.33276015  0.24962115  0.50014626
   0.33348673  0.24986256  0.24965304
   0.49977221  0.87487201  0.62553831
   0.49940668  0.12547592  0.62510698
   0.33634827  0.74603379  0.99826202
   0.33315683  0.75040281  0.74939380
   0.49983880  0.37519400  0.12513206
   0.50059154  0.62489114  0.12452322
   0.66574626  0.99989629  0.25102209
   0.66651053  0.00034549  0.00013485
   0.83365664  0.62579165  0.37467536
   0.83370079  0.87747305  0.37548540
   0.66739124  0.49939800  0.74962615
   0.66684127  0.50060437  0.49959703
   0.83315482  0.12462686  0.87684471
   0.83322488  0.37468364  0.87486391
   0.66365047  0.25173694  0.50396234
   0.66573687  0.25091754  0.25069232
   0.83327104  0.87487545  0.62607805
   0.83361540  0.12542537  0.62689785
   0.66723849  0.74985261  0.00037735
   0.66685880  0.74997957  0.74970435
   0.83293043  0.37469366  0.12502667
   0.83391812  0.62514349  0.12508527
   0.17227645  0.87065248  0.12059217
   0.16896433  0.12360350  0.12344030
   0.99999879  0.75011452  0.49988361
   0.00168690  0.74870593  0.24977967
   0.16643805  0.37528049  0.62524169
   0.16637731  0.62498657  0.62507515
   0.99999868  0.24958276  0.00041931
   0.99987534  0.24973010  0.75092099
   0.16670731  0.12538571  0.37404248
   0.16685919  0.37511191  0.37550844
   0.00135948  0.00013509  0.75121978
   0.99831076  0.00021793  0.50129173
   0.16639300  0.62517780  0.87496947
   0.16758585  0.87443803  0.87509232
   0.99864044  0.49877635  0.24986381
   0.00012354  0.49908058  0.00026899
   0.50011712  0.87491287  0.12485125
   0.49999907  0.12489362  0.12510519
   0.33301011  0.75022508  0.49947875
   0.33391899  0.74885539  0.25000304
   0.49878733  0.37612782  0.62543097
   0.49999923  0.62505949  0.62493896
   0.33442434  0.25001661  0.99927035
   0.33319682  0.24996584  0.75016034
   0.49988138  0.12514844  0.37508541
   0.49955352  0.37499307  0.37534829
   0.33315045  0.00012334  0.74966143
   0.33302230  0.99959363  0.49990280
   0.50121073  0.62456644  0.87387116
   0.50044440  0.87464894  0.87500673
   0.33322109  0.49978908  0.24977208
   0.33326720  0.49929788  0.00001092
   0.83329060  0.87595834  0.12461038
   0.83103377  0.12655801  0.12639581
   0.66698921  0.75051915  0.49977314
   0.66697770  0.75009605  0.25040397
   0.83360455  0.37502818  0.62482230
   0.83362136  0.62492300  0.62501295
   0.66557423  0.25072959  0.99998170
   0.66672955  0.24998831  0.75070027
   0.82772181  0.12940363  0.37934603
   0.83241202  0.37490585  0.37556236
   0.66677637  0.00022622  0.75020919
   0.66607791  0.99999515  0.50114347
   0.83356127  0.62475899  0.87471863
   0.83313849  0.87449208  0.87488327
   0.66684841  0.50033794  0.24987545
   0.66680252  0.49983957  0.00003404
   0.00000472  0.00703921  0.24295206
   0.08208032  0.00095361  0.37765688
   0.24910392  0.12386865  0.24958999
   0.09287223  0.99526246  0.11337485
   0.25090350  0.87298446  0.24754583
   0.24976617  0.62616612  0.50118789
   0.08237651  0.74949025  0.37516317
   0.25047010  0.87528756  0.49857823
   0.08323635  0.74908473  0.62372604
   0.08332506  0.50097419  0.87626561
   0.24817468  0.62545933  0.75008807
   0.08440723  0.50010432  0.62499377
   0.24982349  0.37385930  0.74911808
   0.25146660  0.12573143  0.00020387
   0.08212522  0.24988692  0.87564678
   0.25172725  0.37417713  0.00025414
   0.08375987  0.24640442  0.12421356
   0.08319022  0.25125015  0.62681074
   0.24858671  0.37498761  0.50042827
   0.08489962  0.24995866  0.37585609
   0.24928063  0.12328090  0.49845232
   0.24968456  0.87638405  0.75025490
   0.08130817  0.99998017  0.62502081
   0.25117362  0.12504895  0.74979833
   0.08453741  0.99892364  0.87560785
   0.08428551  0.75020907  0.12533463
   0.25392505  0.87123152  0.99636837
   0.08467137  0.75017256  0.87493916
   0.25004357  0.62301148  0.99872876
   0.25000216  0.37563304  0.25146932
   0.08172740  0.49796014  0.12530882
   0.25116970  0.62451564  0.24980349
   0.08312017  0.49839392  0.37345683
   0.41681236  0.00100909  0.37638839
   0.58177873  0.12526724  0.25017284
   0.41821965  0.99982520  0.12473249
   0.58318663  0.87361026  0.24898964
   0.58351277  0.62654276  0.50101163
   0.41554171  0.74953792  0.37496270
   0.58445631  0.87503464  0.50046113
   0.41648559  0.74898668  0.62345564
   0.41658563  0.50146946  0.87600471
   0.58295319  0.62437794  0.74902765
   0.41704504  0.50097121  0.62562030
   0.58341195  0.37399481  0.74852842
   0.58302756  0.12614446  0.00107266
   0.41611217  0.25036120  0.87429743
   0.58388679  0.37570220  0.99963679
   0.41697116  0.24892612  0.12385461
   0.41613221  0.25149099  0.62618113
   0.58050832  0.37655716  0.50092683
   0.41773095  0.24981467  0.37512303
   0.58276779  0.12396874  0.49929967
   0.58367857  0.87614675  0.75118955
   0.41500135  0.00006845  0.62482384
   0.58480788  0.12509456  0.74985047
   0.41724639  0.99870904  0.87308042
   0.41723039  0.75069894  0.12603054
   0.58226701  0.87487541  0.00018486
   0.41948954  0.74907089  0.87344171
   0.58386597  0.62381775  0.99850816
   0.58275119  0.37691993  0.25128838
   0.41518927  0.50014876  0.12490367
   0.58499740  0.62517584  0.24992978
   0.41631933  0.49881038  0.37385140
   0.74909312  0.00245188  0.37701488
   0.90712960  0.13660499  0.25473681
   0.75089286  0.00040936  0.12612881
   0.91791719  0.87234228  0.24904329
   0.91676236  0.62627110  0.50091477
   0.74952932  0.75141950  0.37471043
   0.91762125  0.87483464  0.50050680
   0.75023205  0.74881008  0.62383238
   0.75017566  0.50088250  0.87614043
   0.91559178  0.62500576  0.74989423
   0.75182358  0.49990998  0.62454057
   0.91667341  0.37373296  0.74902536
   0.91623590  0.12578953  0.00359277
   0.74827039  0.24974714  0.87582033
   0.91787280  0.37435504  0.00011351
   0.74853200  0.24979525  0.12426706
   0.74995335  0.25126950  0.62698704
   0.91532673  0.37505748  0.49982872
   0.74607418  0.25362969  0.37876475
   0.91571248  0.12466247  0.49979011
   0.91687822  0.87654347  0.75160217
   0.74882715  0.00019480  0.62548303
   0.91827178  0.12469043  0.75203723
   0.74999572  0.99853147  0.87436468
   0.75071916  0.75154707  0.12671663
   0.91509771  0.87414505  0.00003673
   0.75141187  0.74957178  0.87501054
   0.91680942  0.62319122  0.99874858
   0.91546127  0.37438836  0.25107753
   0.74882560  0.50020111  0.12495077
   0.91869066  0.62497616  0.25001875
   0.75031351  0.49974342  0.37361579
